<?xml version="1.0" encoding="UTF-8"?>

<!-- generated on 04/23/21 16:45:19 by Eclipse SUMO sumo Version v1_8_0+1742-ceeb7fe3f3
<configuration xmlns:xsi="http://www.w3.org/2001/XMLSchema-instance" xsi:noNamespaceSchemaLocation="http://sumo.dlr.de/xsd/sumoConfiguration.xsd">

    <input>
        <net-file value="data/osm.net.xml"/>
        <route-files value="data/osm.passenger.trips.xml,data/osm.bicycle.trips.xml,data/osm.truck.trips.xml,data/osm.motorcycle.trips.xml,data/osm.bus.trips.xml,data/electricvehicles.rou.xml"/>
        <additional-files value="data/Manchester_additionals.add.xml"/>
    </input>

    <output>
        <chargingstations-output value="data/Manchester_chargingstations.xml"/>
        <summary-output value="data/summary_100.xml"/>
        <tripinfo-output value="tripinfo.xml"/>
    </output>

    <processing>
        <ignore-route-errors value="true"/>
    </processing>

    <routing>
        <device.rerouting.adaptation-steps value="180"/>
    </routing>

    <report>
        <verbose value="true"/>
        <no-warnings value="true"/>
        <duration-log.statistics value="true"/>
        <no-step-log value="true"/>
    </report>

    <traci_server>
        <remote-port value="53321"/>
    </traci_server>

    <gui_only>
        <gui-settings-file value="data/osm.view.xml"/>
    </gui_only>

</configuration>
-->

<tripinfos xmlns:xsi="http://www.w3.org/2001/XMLSchema-instance" xsi:noNamespaceSchemaLocation="http://sumo.dlr.de/xsd/tripinfo_file.xsd">
    <tripinfo id="EV_10" depart="11.00" departLane="-647690430#0_0" departPos="5.10" departSpeed="0.00" departDelay="0.00" arrival="29.00" arrivalLane="-647690430#0_0" arrivalPos="101.22" arrivalSpeed="11.25" duration="18.00" routeLength="96.12" waitingTime="0.00" waitingCount="0" stopTime="0.00" timeLoss="9.81" rerouteNo="0" devices="tripinfo_EV_10 battery_EV_10" vType="electricvehicle" speedFactor="0.94" vaporized=""/>
    <tripinfo id="EV_40" depart="41.00" departLane="-155768539#1_0" departPos="5.10" departSpeed="0.00" departDelay="0.00" arrival="55.00" arrivalLane="-155768539#1_0" arrivalPos="66.40" arrivalSpeed="8.12" duration="14.00" routeLength="61.30" waitingTime="0.00" waitingCount="0" stopTime="0.00" timeLoss="7.31" rerouteNo="0" devices="tripinfo_EV_40 battery_EV_40" vType="electricvehicle" speedFactor="1.03" vaporized=""/>
    <tripinfo id="truck1" depart="2.00" departLane="-28039904#0_0" departPos="7.20" departSpeed="0.00" departDelay="0.57" arrival="71.00" arrivalLane="-28011532#3_0" arrivalPos="84.90" arrivalSpeed="15.23" duration="69.00" routeLength="919.93" waitingTime="0.00" waitingCount="0" stopTime="0.00" timeLoss="19.83" rerouteNo="1" devices="tripinfo_truck1 routing_truck1" vType="truck_truck" speedFactor="0.92" vaporized=""/>
    <tripinfo id="moto0" depart="0.00" departLane="-28039428_0" departPos="2.30" departSpeed="0.00" departDelay="0.00" arrival="82.00" arrivalLane="-28011515#4_0" arrivalPos="51.77" arrivalSpeed="10.08" duration="82.00" routeLength="983.24" waitingTime="7.00" waitingCount="1" stopTime="0.00" timeLoss="31.35" rerouteNo="1" devices="tripinfo_moto0 routing_moto0" vType="moto_motorcycle" speedFactor="1.05" vaporized=""/>
    <tripinfo id="EV_70" depart="71.00" departLane="-4910569#2_0" departPos="5.10" departSpeed="0.00" departDelay="0.00" arrival="83.00" arrivalLane="-4910569#2_0" arrivalPos="46.80" arrivalSpeed="6.90" duration="12.00" routeLength="41.70" waitingTime="0.00" waitingCount="0" stopTime="0.00" timeLoss="6.53" rerouteNo="0" devices="tripinfo_EV_70 battery_EV_70" vType="electricvehicle" speedFactor="0.89" vaporized=""/>
    <tripinfo id="bike1" depart="2.00" departLane="-299268501#1_0" departPos="1.70" departSpeed="0.00" departDelay="0.55" arrival="97.00" arrivalLane="-28022453#0_0" arrivalPos="46.20" arrivalSpeed="4.96" duration="95.00" routeLength="477.50" waitingTime="0.00" waitingCount="0" stopTime="0.00" timeLoss="8.64" rerouteNo="1" devices="tripinfo_bike1 routing_bike1" vType="bike_bicycle" speedFactor="1.08" vaporized=""/>
    <tripinfo id="moto13" depart="37.00" departLane="-37077845_0" departPos="2.30" departSpeed="0.00" departDelay="0.04" arrival="97.00" arrivalLane="-28038972#1_0" arrivalPos="0.20" arrivalSpeed="3.30" duration="60.00" routeLength="531.55" waitingTime="0.00" waitingCount="0" stopTime="0.00" timeLoss="16.36" rerouteNo="1" devices="tripinfo_moto13 routing_moto13" vType="moto_motorcycle" speedFactor="0.94" vaporized=""/>
    <tripinfo id="moto1" depart="3.00" departLane="119926723#3_1" departPos="2.30" departSpeed="0.00" departDelay="0.16" arrival="101.00" arrivalLane="-155731249#10_0" arrivalPos="33.61" arrivalSpeed="16.11" duration="98.00" routeLength="1116.69" waitingTime="0.00" waitingCount="0" stopTime="0.00" timeLoss="17.29" rerouteNo="1" devices="tripinfo_moto1 routing_moto1" vType="moto_motorcycle" speedFactor="0.89" vaporized=""/>
    <tripinfo id="moto17" depart="49.00" departLane="28038923#2_0" departPos="2.30" departSpeed="0.00" departDelay="0.67" arrival="103.00" arrivalLane="163383627#2_0" arrivalPos="57.68" arrivalSpeed="6.51" duration="54.00" routeLength="404.94" waitingTime="2.00" waitingCount="1" stopTime="0.00" timeLoss="17.41" rerouteNo="1" devices="tripinfo_moto17 routing_moto17" vType="moto_motorcycle" speedFactor="0.96" vaporized=""/>
    <tripinfo id="veh40" depart="39.00" departLane="184507808#2_0" departPos="5.10" departSpeed="0.00" departDelay="0.89" arrival="112.00" arrivalLane="589896293#1_0" arrivalPos="90.03" arrivalSpeed="13.82" duration="73.00" routeLength="725.47" waitingTime="0.00" waitingCount="0" stopTime="0.00" timeLoss="10.48" rerouteNo="1" devices="tripinfo_veh40 routing_veh40" vType="veh_passenger" speedFactor="1.04" vaporized=""/>
    <tripinfo id="bike29" depart="42.00" departLane="-261710559_0" departPos="1.70" departSpeed="0.00" departDelay="0.07" arrival="114.00" arrivalLane="-679297889_0" arrivalPos="45.46" arrivalSpeed="4.52" duration="72.00" routeLength="340.84" waitingTime="0.00" waitingCount="0" stopTime="0.00" timeLoss="7.53" rerouteNo="1" devices="tripinfo_bike29 routing_bike29" vType="bike_bicycle" speedFactor="0.91" vaporized=""/>
    <tripinfo id="moto12" depart="35.00" departLane="37077810_0" departPos="2.30" departSpeed="0.00" departDelay="0.88" arrival="124.00" arrivalLane="28039381#1_0" arrivalPos="25.03" arrivalSpeed="14.94" duration="89.00" routeLength="821.44" waitingTime="12.00" waitingCount="2" stopTime="0.00" timeLoss="29.51" rerouteNo="1" devices="tripinfo_moto12 routing_moto12" vType="moto_motorcycle" speedFactor="1.04" vaporized=""/>
    <tripinfo id="veh25" depart="24.00" departLane="-28174535#0_0" departPos="5.10" departSpeed="0.00" departDelay="0.18" arrival="125.00" arrivalLane="75354227#0_0" arrivalPos="47.23" arrivalSpeed="9.95" duration="101.00" routeLength="868.32" waitingTime="0.00" waitingCount="0" stopTime="0.00" timeLoss="16.69" rerouteNo="1" devices="tripinfo_veh25 routing_veh25" vType="veh_passenger" speedFactor="1.18" vaporized=""/>
    <tripinfo id="moto4" depart="12.00" departLane="163383614#0_0" departPos="2.30" departSpeed="0.00" departDelay="0.63" arrival="128.00" arrivalLane="81021292#3_0" arrivalPos="15.50" arrivalSpeed="7.92" duration="116.00" routeLength="1316.03" waitingTime="0.00" waitingCount="0" stopTime="0.00" timeLoss="19.93" rerouteNo="1" devices="tripinfo_moto4 routing_moto4" vType="moto_motorcycle" speedFactor="1.01" vaporized=""/>
    <tripinfo id="moto10" depart="29.00" departLane="856282420#1_1" departPos="2.30" departSpeed="0.00" departDelay="0.57" arrival="128.00" arrivalLane="242821398#1_0" arrivalPos="33.35" arrivalSpeed="14.26" duration="99.00" routeLength="983.07" waitingTime="0.00" waitingCount="0" stopTime="0.00" timeLoss="18.54" rerouteNo="1" devices="tripinfo_moto10 routing_moto10" vType="moto_motorcycle" speedFactor="1.06" vaporized=""/>
    <tripinfo id="veh11" depart="11.00" departLane="79716901_0" departPos="5.10" departSpeed="0.00" departDelay="0.52" arrival="131.00" arrivalLane="-620786548_0" arrivalPos="51.50" arrivalSpeed="11.99" duration="120.00" routeLength="1418.98" waitingTime="0.00" waitingCount="0" stopTime="0.00" timeLoss="23.02" rerouteNo="1" devices="tripinfo_veh11 routing_veh11" vType="veh_passenger" speedFactor="0.94" vaporized=""/>
    <tripinfo id="veh33" depart="32.00" departLane="-47441333_0" departPos="5.10" departSpeed="0.00" departDelay="0.56" arrival="132.00" arrivalLane="-294963698#0_0" arrivalPos="9.59" arrivalSpeed="14.33" duration="100.00" routeLength="966.63" waitingTime="0.00" waitingCount="0" stopTime="0.00" timeLoss="38.40" rerouteNo="1" devices="tripinfo_veh33 routing_veh33" vType="veh_passenger" speedFactor="1.10" vaporized=""/>
    <tripinfo id="moto7" depart="20.00" departLane="23118342#4_0" departPos="2.30" departSpeed="0.00" departDelay="0.10" arrival="132.00" arrivalLane="-64432425#1_0" arrivalPos="34.19" arrivalSpeed="9.24" duration="112.00" routeLength="1063.75" waitingTime="0.00" waitingCount="0" stopTime="0.00" timeLoss="20.86" rerouteNo="1" devices="tripinfo_moto7 routing_moto7" vType="moto_motorcycle" speedFactor="1.06" vaporized=""/>
    <tripinfo id="veh55" depart="53.00" departLane="159131934#1_0" departPos="3.63" departSpeed="0.00" departDelay="0.60" arrival="140.00" arrivalLane="-27930076#3_0" arrivalPos="19.99" arrivalSpeed="9.49" duration="87.00" routeLength="862.51" waitingTime="0.00" waitingCount="0" stopTime="0.00" timeLoss="17.49" rerouteNo="1" devices="tripinfo_veh55 routing_veh55" vType="veh_passenger" speedFactor="0.97" vaporized=""/>
    <tripinfo id="moto15" depart="43.00" departLane="-28038945#0_0" departPos="2.30" departSpeed="0.00" departDelay="0.35" arrival="141.00" arrivalLane="-28037774#0_0" arrivalPos="0.20" arrivalSpeed="6.61" duration="98.00" routeLength="1077.51" waitingTime="0.00" waitingCount="0" stopTime="0.00" timeLoss="21.49" rerouteNo="1" devices="tripinfo_moto15 routing_moto15" vType="moto_motorcycle" speedFactor="1.02" vaporized=""/>
    <tripinfo id="moto3" depart="9.00" departLane="341760642#2_0" departPos="2.30" departSpeed="0.00" departDelay="0.47" arrival="146.00" arrivalLane="28020826#2_0" arrivalPos="104.24" arrivalSpeed="18.38" duration="137.00" routeLength="1573.09" waitingTime="2.00" waitingCount="1" stopTime="0.00" timeLoss="23.73" rerouteNo="1" devices="tripinfo_moto3 routing_moto3" vType="moto_motorcycle" speedFactor="0.92" vaporized=""/>
    <tripinfo id="bus7" depart="20.00" departLane="334451178_0" departPos="12.10" departSpeed="0.00" departDelay="0.09" arrival="150.00" arrivalLane="27943846#2_0" arrivalPos="51.60" arrivalSpeed="13.31" duration="130.00" routeLength="1118.77" waitingTime="2.00" waitingCount="1" stopTime="0.00" timeLoss="30.95" rerouteNo="1" devices="tripinfo_bus7 routing_bus7" vType="bus_bus" speedFactor="1.00" vaporized=""/>
    <tripinfo id="bus27" depart="77.00" departLane="37077810_0" departPos="12.10" departSpeed="0.00" departDelay="0.21" arrival="150.00" arrivalLane="28039382#1_0" arrivalPos="67.63" arrivalSpeed="13.80" duration="73.00" routeLength="761.14" waitingTime="0.00" waitingCount="0" stopTime="0.00" timeLoss="15.12" rerouteNo="1" devices="tripinfo_bus27 routing_bus27" vType="bus_bus" speedFactor="1.00" vaporized=""/>
    <tripinfo id="EV_90" depart="91.00" departLane="-47440628_0" departPos="5.10" departSpeed="0.00" departDelay="0.00" arrival="150.00" arrivalLane="-155105717#4_1" arrivalPos="3.57" arrivalSpeed="11.23" duration="59.00" routeLength="314.65" waitingTime="12.00" waitingCount="1" stopTime="0.00" timeLoss="33.75" rerouteNo="1" devices="tripinfo_EV_90 battery_EV_90" vType="electricvehicle" speedFactor="0.86" vaporized=""/>
    <tripinfo id="moto16" depart="46.00" departLane="-163566219#1_0" departPos="2.30" departSpeed="0.00" departDelay="0.51" arrival="151.00" arrivalLane="-156340399#0_0" arrivalPos="56.16" arrivalSpeed="6.35" duration="105.00" routeLength="939.01" waitingTime="0.00" waitingCount="0" stopTime="0.00" timeLoss="24.61" rerouteNo="1" devices="tripinfo_moto16 routing_moto16" vType="moto_motorcycle" speedFactor="1.04" vaporized=""/>
    <tripinfo id="veh42" depart="41.00" departLane="930354#2-AddedOnRampEdge_1" departPos="5.10" departSpeed="0.00" departDelay="0.98" arrival="152.00" arrivalLane="159238289#0_0" arrivalPos="56.92" arrivalSpeed="13.32" duration="111.00" routeLength="1098.07" waitingTime="2.00" waitingCount="1" stopTime="0.00" timeLoss="27.08" rerouteNo="1" devices="tripinfo_veh42 routing_veh42" vType="veh_passenger" speedFactor="1.00" vaporized=""/>
    <tripinfo id="moto2" depart="6.00" departLane="-163566238#3_0" departPos="2.30" departSpeed="0.00" departDelay="0.31" arrival="152.00" arrivalLane="-168608383#0_0" arrivalPos="29.42" arrivalSpeed="13.58" duration="146.00" routeLength="1452.13" waitingTime="15.00" waitingCount="2" stopTime="0.00" timeLoss="47.42" rerouteNo="1" devices="tripinfo_moto2 routing_moto2" vType="moto_motorcycle" speedFactor="1.12" vaporized=""/>
    <tripinfo id="bike67" depart="97.00" departLane="-171593597#2_0" departPos="1.70" departSpeed="0.00" departDelay="0.14" arrival="156.00" arrivalLane="145039120#3_0" arrivalPos="0.33" arrivalSpeed="5.36" duration="59.00" routeLength="281.35" waitingTime="0.00" waitingCount="0" stopTime="0.00" timeLoss="7.49" rerouteNo="1" devices="tripinfo_bike67 routing_bike67" vType="bike_bicycle" speedFactor="0.98" vaporized=""/>
    <tripinfo id="veh113" depart="108.00" departLane="-163566150#1_0" departPos="5.10" departSpeed="0.00" departDelay="0.34" arrival="157.00" arrivalLane="-27942630#1_0" arrivalPos="31.91" arrivalSpeed="15.34" duration="49.00" routeLength="639.44" waitingTime="0.00" waitingCount="0" stopTime="0.00" timeLoss="8.80" rerouteNo="1" devices="tripinfo_veh113 routing_veh113" vType="veh_passenger" speedFactor="1.18" vaporized=""/>
    <tripinfo id="veh60" depart="58.00" departLane="28285549_0" departPos="5.10" departSpeed="0.00" departDelay="0.83" arrival="158.00" arrivalLane="163566171#0_0" arrivalPos="54.36" arrivalSpeed="12.83" duration="100.00" routeLength="711.44" waitingTime="4.00" waitingCount="3" stopTime="0.00" timeLoss="32.64" rerouteNo="1" devices="tripinfo_veh60 routing_veh60" vType="veh_passenger" speedFactor="0.94" vaporized=""/>
    <tripinfo id="veh6" depart="6.00" departLane="24781758#5_1" departPos="5.10" departSpeed="0.00" departDelay="0.28" arrival="161.00" arrivalLane="167121167#2_0" arrivalPos="209.71" arrivalSpeed="13.67" duration="155.00" routeLength="2025.73" waitingTime="0.00" waitingCount="0" stopTime="0.00" timeLoss="18.26" rerouteNo="1" devices="tripinfo_veh6 routing_veh6" vType="veh_passenger" speedFactor="1.05" vaporized=""/>
    <tripinfo id="veh38" depart="37.00" departLane="-28091014_0" departPos="5.10" departSpeed="0.00" departDelay="0.79" arrival="163.00" arrivalLane="-28038946_0" arrivalPos="74.34" arrivalSpeed="14.21" duration="126.00" routeLength="1195.81" waitingTime="7.00" waitingCount="1" stopTime="0.00" timeLoss="43.63" rerouteNo="1" devices="tripinfo_veh38 routing_veh38" vType="veh_passenger" speedFactor="1.04" vaporized=""/>
    <tripinfo id="veh21" depart="21.00" departLane="-163383627#2_0" departPos="5.10" departSpeed="0.00" departDelay="0.99" arrival="164.00" arrivalLane="-28037780#1_0" arrivalPos="0.20" arrivalSpeed="2.96" duration="143.00" routeLength="1383.21" waitingTime="19.00" waitingCount="3" stopTime="0.00" timeLoss="58.08" rerouteNo="1" devices="tripinfo_veh21 routing_veh21" vType="veh_passenger" speedFactor="0.92" vaporized=""/>
    <tripinfo id="moto29" depart="83.00" departLane="155765289#6_0" departPos="2.30" departSpeed="0.00" departDelay="0.55" arrival="167.00" arrivalLane="-27994826#6_0" arrivalPos="16.01" arrivalSpeed="9.91" duration="84.00" routeLength="618.72" waitingTime="5.00" waitingCount="1" stopTime="0.00" timeLoss="37.96" rerouteNo="1" devices="tripinfo_moto29 routing_moto29" vType="moto_motorcycle" speedFactor="1.06" vaporized=""/>
    <tripinfo id="moto23" depart="66.00" departLane="122110102#1_0" departPos="2.30" departSpeed="0.00" departDelay="0.61" arrival="168.00" arrivalLane="159132016#1_0" arrivalPos="80.77" arrivalSpeed="13.34" duration="102.00" routeLength="1229.78" waitingTime="0.00" waitingCount="0" stopTime="0.00" timeLoss="17.74" rerouteNo="1" devices="tripinfo_moto23 routing_moto23" vType="moto_motorcycle" speedFactor="1.04" vaporized=""/>
    <tripinfo id="moto26" depart="74.00" departLane="154981254#0_0" departPos="2.30" departSpeed="0.00" departDelay="0.08" arrival="172.00" arrivalLane="28078587#3_0" arrivalPos="9.54" arrivalSpeed="10.95" duration="98.00" routeLength="588.91" waitingTime="16.00" waitingCount="1" stopTime="0.00" timeLoss="31.82" rerouteNo="1" devices="tripinfo_moto26 routing_moto26" vType="moto_motorcycle" speedFactor="0.98" vaporized=""/>
    <tripinfo id="bus12" depart="35.00" departLane="341760642#0_0" departPos="12.10" departSpeed="0.00" departDelay="0.87" arrival="173.00" arrivalLane="28013729#1_0" arrivalPos="28.05" arrivalSpeed="12.28" duration="138.00" routeLength="1744.51" waitingTime="0.00" waitingCount="0" stopTime="0.00" timeLoss="29.35" rerouteNo="1" devices="tripinfo_bus12 routing_bus12" vType="bus_bus" speedFactor="1.00" vaporized=""/>
    <tripinfo id="truck52" depart="75.00" departLane="28038924#3_0" departPos="7.20" departSpeed="0.00" departDelay="0.68" arrival="177.00" arrivalLane="163566181#0_0" arrivalPos="16.20" arrivalSpeed="6.48" duration="102.00" routeLength="1046.72" waitingTime="0.00" waitingCount="0" stopTime="0.00" timeLoss="24.82" rerouteNo="1" devices="tripinfo_truck52 routing_truck52" vType="truck_truck" speedFactor="1.01" vaporized=""/>
    <tripinfo id="moto36" depart="103.00" departLane="27927988#4_0" departPos="2.30" departSpeed="0.00" departDelay="0.65" arrival="178.00" arrivalLane="-353468982#2_0" arrivalPos="6.28" arrivalSpeed="8.06" duration="75.00" routeLength="830.05" waitingTime="2.00" waitingCount="1" stopTime="0.00" timeLoss="19.70" rerouteNo="1" devices="tripinfo_moto36 routing_moto36" vType="moto_motorcycle" speedFactor="1.18" vaporized=""/>
    <tripinfo id="truck0" depart="0.00" departLane="242821398#0_0" departPos="1.39" departSpeed="0.00" departDelay="0.00" arrival="180.00" arrivalLane="-154986397#6_0" arrivalPos="40.69" arrivalSpeed="8.50" duration="180.00" routeLength="1367.45" waitingTime="10.00" waitingCount="2" stopTime="0.00" timeLoss="56.67" rerouteNo="1" devices="tripinfo_truck0 routing_truck0" vType="truck_truck" speedFactor="1.02" vaporized=""/>
    <tripinfo id="moto27" depart="77.00" departLane="341760642#4_0" departPos="2.30" departSpeed="0.00" departDelay="0.23" arrival="180.00" arrivalLane="-27942600#2_0" arrivalPos="43.07" arrivalSpeed="12.82" duration="103.00" routeLength="1039.71" waitingTime="9.00" waitingCount="1" stopTime="0.00" timeLoss="36.20" rerouteNo="1" devices="tripinfo_moto27 routing_moto27" vType="moto_motorcycle" speedFactor="1.08" vaporized=""/>
    <tripinfo id="moto18" depart="52.00" departLane="-144786848#4_0" departPos="2.30" departSpeed="0.00" departDelay="0.82" arrival="181.00" arrivalLane="679601198#0_0" arrivalPos="0.20" arrivalSpeed="12.87" duration="129.00" routeLength="1606.88" waitingTime="2.00" waitingCount="1" stopTime="0.00" timeLoss="29.50" rerouteNo="1" devices="tripinfo_moto18 routing_moto18" vType="moto_motorcycle" speedFactor="0.98" vaporized=""/>
    <tripinfo id="moto11" depart="32.00" departLane="167120455#2_1" departPos="2.30" departSpeed="0.00" departDelay="0.72" arrival="182.00" arrivalLane="27931649_0" arrivalPos="137.79" arrivalSpeed="11.73" duration="150.00" routeLength="1462.42" waitingTime="2.00" waitingCount="1" stopTime="0.00" timeLoss="28.62" rerouteNo="1" devices="tripinfo_moto11 routing_moto11" vType="moto_motorcycle" speedFactor="0.87" vaporized=""/>
    <tripinfo id="bus2" depart="6.00" departLane="119826654_0" departPos="12.10" departSpeed="0.00" departDelay="0.31" arrival="183.00" arrivalLane="-155729948#1_0" arrivalPos="42.24" arrivalSpeed="8.91" duration="177.00" routeLength="1357.98" waitingTime="5.00" waitingCount="1" stopTime="0.00" timeLoss="38.67" rerouteNo="1" devices="tripinfo_bus2 routing_bus2" vType="bus_bus" speedFactor="1.00" vaporized=""/>
    <tripinfo id="moto24" depart="69.00" departLane="-47441387#1_0" departPos="2.30" departSpeed="0.00" departDelay="0.76" arrival="185.00" arrivalLane="172453014#0_0" arrivalPos="54.95" arrivalSpeed="12.76" duration="116.00" routeLength="1174.93" waitingTime="2.00" waitingCount="1" stopTime="0.00" timeLoss="30.71" rerouteNo="1" devices="tripinfo_moto24 routing_moto24" vType="moto_motorcycle" speedFactor="1.08" vaporized=""/>
    <tripinfo id="veh77" depart="74.00" departLane="-28028739#2_0" departPos="5.10" departSpeed="0.00" departDelay="0.64" arrival="190.00" arrivalLane="-28022571#0_0" arrivalPos="127.88" arrivalSpeed="21.37" duration="116.00" routeLength="1131.81" waitingTime="1.00" waitingCount="1" stopTime="0.00" timeLoss="39.34" rerouteNo="1" devices="tripinfo_veh77 routing_veh77" vType="veh_passenger" speedFactor="1.00" vaporized=""/>
    <tripinfo id="veh126" depart="121.00" departLane="-163313151#8_0" departPos="5.10" departSpeed="0.00" departDelay="0.95" arrival="191.00" arrivalLane="-28011532#0_0" arrivalPos="92.33" arrivalSpeed="21.88" duration="70.00" routeLength="557.55" waitingTime="10.00" waitingCount="1" stopTime="0.00" timeLoss="28.72" rerouteNo="1" devices="tripinfo_veh126 routing_veh126" vType="veh_passenger" speedFactor="1.01" vaporized=""/>
    <tripinfo id="veh67" depart="64.00" departLane="-159238316_0" departPos="5.10" departSpeed="0.00" departDelay="0.16" arrival="193.00" arrivalLane="28039391#5_0" arrivalPos="41.62" arrivalSpeed="13.03" duration="129.00" routeLength="1424.91" waitingTime="2.00" waitingCount="1" stopTime="0.00" timeLoss="36.94" rerouteNo="1" devices="tripinfo_veh67 routing_veh67" vType="veh_passenger" speedFactor="0.97" vaporized=""/>
    <tripinfo id="truck38" depart="55.00" departLane="-163566222_0" departPos="7.20" departSpeed="0.00" departDelay="0.69" arrival="193.00" arrivalLane="-156340403_0" arrivalPos="33.56" arrivalSpeed="9.25" duration="138.00" routeLength="1031.61" waitingTime="9.00" waitingCount="1" stopTime="0.00" timeLoss="51.12" rerouteNo="1" devices="tripinfo_truck38 routing_truck38" vType="truck_truck" speedFactor="1.09" vaporized=""/>
    <tripinfo id="veh109" depart="104.00" departLane="163566243#2_0" departPos="5.10" departSpeed="0.00" departDelay="0.15" arrival="194.00" arrivalLane="28038923#5_0" arrivalPos="52.29" arrivalSpeed="14.81" duration="90.00" routeLength="1143.42" waitingTime="0.00" waitingCount="0" stopTime="0.00" timeLoss="18.74" rerouteNo="1" devices="tripinfo_veh109 routing_veh109" vType="veh_passenger" speedFactor="1.10" vaporized=""/>
    <tripinfo id="moto52" depart="148.00" departLane="-243050872_1" departPos="2.30" departSpeed="0.00" departDelay="0.15" arrival="194.00" arrivalLane="682060087_0" arrivalPos="28.87" arrivalSpeed="9.19" duration="46.00" routeLength="430.45" waitingTime="0.00" waitingCount="0" stopTime="0.00" timeLoss="10.75" rerouteNo="1" devices="tripinfo_moto52 routing_moto52" vType="moto_motorcycle" speedFactor="1.12" vaporized=""/>
    <tripinfo id="moto19" depart="55.00" departLane="-3661460#1_0" departPos="2.30" departSpeed="0.00" departDelay="0.98" arrival="195.00" arrivalLane="-159131991_0" arrivalPos="16.46" arrivalSpeed="11.60" duration="140.00" routeLength="1406.86" waitingTime="0.00" waitingCount="0" stopTime="0.00" timeLoss="31.31" rerouteNo="1" devices="tripinfo_moto19 routing_moto19" vType="moto_motorcycle" speedFactor="0.99" vaporized=""/>
    <tripinfo id="moto25" depart="72.00" departLane="-163313151#2_0" departPos="2.30" departSpeed="0.00" departDelay="0.92" arrival="196.00" arrivalLane="229076198_0" arrivalPos="4.49" arrivalSpeed="2.39" duration="124.00" routeLength="1688.67" waitingTime="0.00" waitingCount="0" stopTime="0.00" timeLoss="21.89" rerouteNo="1" devices="tripinfo_moto25 routing_moto25" vType="moto_motorcycle" speedFactor="0.99" vaporized=""/>
    <tripinfo id="veh112" depart="107.00" departLane="-24781758#4_0" departPos="5.10" departSpeed="0.00" departDelay="0.29" arrival="198.00" arrivalLane="798779#1_0" arrivalPos="63.16" arrivalSpeed="12.44" duration="91.00" routeLength="829.57" waitingTime="4.00" waitingCount="1" stopTime="0.00" timeLoss="22.33" rerouteNo="1" devices="tripinfo_veh112 routing_veh112" vType="veh_passenger" speedFactor="0.92" vaporized=""/>
    <tripinfo id="veh82" depart="79.00" departLane="-28011533#0_0" departPos="5.10" departSpeed="0.00" departDelay="0.87" arrival="199.00" arrivalLane="-196376299#4_0" arrivalPos="12.35" arrivalSpeed="7.87" duration="120.00" routeLength="1224.05" waitingTime="0.00" waitingCount="0" stopTime="0.00" timeLoss="15.05" rerouteNo="1" devices="tripinfo_veh82 routing_veh82" vType="veh_passenger" speedFactor="1.00" vaporized=""/>
    <tripinfo id="moto37" depart="106.00" departLane="-37077851#5_0" departPos="2.30" departSpeed="0.00" departDelay="0.80" arrival="199.00" arrivalLane="28037780#0_0" arrivalPos="0.20" arrivalSpeed="2.59" duration="93.00" routeLength="966.40" waitingTime="11.00" waitingCount="1" stopTime="0.00" timeLoss="31.72" rerouteNo="1" devices="tripinfo_moto37 routing_moto37" vType="moto_motorcycle" speedFactor="0.85" vaporized=""/>
    <tripinfo id="veh90" depart="86.00" departLane="119928840_0" departPos="5.10" departSpeed="0.00" departDelay="0.25" arrival="200.00" arrivalLane="-647690430#0_0" arrivalPos="101.22" arrivalSpeed="14.10" duration="114.00" routeLength="1004.50" waitingTime="6.00" waitingCount="1" stopTime="0.00" timeLoss="40.16" rerouteNo="1" devices="tripinfo_veh90 routing_veh90" vType="veh_passenger" speedFactor="1.09" vaporized=""/>
    <tripinfo id="moto45" depart="128.00" departLane="28027793#1_0" departPos="2.30" departSpeed="0.00" departDelay="0.06" arrival="202.00" arrivalLane="163566230#1_0" arrivalPos="10.74" arrivalSpeed="6.24" duration="74.00" routeLength="559.05" waitingTime="1.00" waitingCount="1" stopTime="0.00" timeLoss="21.57" rerouteNo="1" devices="tripinfo_moto45 routing_moto45" vType="moto_motorcycle" speedFactor="0.93" vaporized=""/>
    <tripinfo id="veh49" depart="47.00" departLane="-121202819_0" departPos="5.10" departSpeed="0.00" departDelay="0.31" arrival="203.00" arrivalLane="28020826#2_0" arrivalPos="104.24" arrivalSpeed="23.92" duration="156.00" routeLength="1927.66" waitingTime="0.00" waitingCount="0" stopTime="0.00" timeLoss="35.61" rerouteNo="1" devices="tripinfo_veh49 routing_veh49" vType="veh_passenger" speedFactor="1.10" vaporized=""/>
    <tripinfo id="bike85" depart="123.00" departLane="732084780_0" departPos="1.70" departSpeed="0.00" departDelay="0.12" arrival="204.00" arrivalLane="184507807#4_0" arrivalPos="11.98" arrivalSpeed="5.55" duration="81.00" routeLength="413.98" waitingTime="0.00" waitingCount="0" stopTime="0.00" timeLoss="6.25" rerouteNo="1" devices="tripinfo_bike85 routing_bike85" vType="bike_bicycle" speedFactor="0.95" vaporized=""/>
    <tripinfo id="bike13" depart="19.00" departLane="-172065478#1_0" departPos="1.70" departSpeed="0.00" departDelay="0.21" arrival="205.00" arrivalLane="-184016359_0" arrivalPos="60.31" arrivalSpeed="5.26" duration="186.00" routeLength="857.40" waitingTime="10.00" waitingCount="2" stopTime="0.00" timeLoss="30.99" rerouteNo="1" devices="tripinfo_bike13 routing_bike13" vType="bike_bicycle" speedFactor="1.00" vaporized=""/>
    <tripinfo id="moto57" depart="163.00" departLane="-46346750_0" departPos="2.30" departSpeed="0.00" departDelay="0.94" arrival="208.00" arrivalLane="46346745#0_0" arrivalPos="75.84" arrivalSpeed="12.22" duration="45.00" routeLength="489.67" waitingTime="0.00" waitingCount="0" stopTime="0.00" timeLoss="8.80" rerouteNo="1" devices="tripinfo_moto57 routing_moto57" vType="moto_motorcycle" speedFactor="1.08" vaporized=""/>
    <tripinfo id="veh97" depart="93.00" departLane="96397280#1_0" departPos="5.10" departSpeed="0.00" departDelay="0.58" arrival="209.00" arrivalLane="396055840#0_1" arrivalPos="13.78" arrivalSpeed="11.43" duration="116.00" routeLength="1154.81" waitingTime="0.00" waitingCount="0" stopTime="0.00" timeLoss="22.88" rerouteNo="1" devices="tripinfo_veh97 routing_veh97" vType="veh_passenger" speedFactor="0.96" vaporized=""/>
    <tripinfo id="moto51" depart="145.00" departLane="-847193371#1_0" departPos="2.30" departSpeed="0.00" departDelay="0.00" arrival="210.00" arrivalLane="198474943#1_0" arrivalPos="64.81" arrivalSpeed="22.73" duration="65.00" routeLength="753.40" waitingTime="0.00" waitingCount="0" stopTime="0.00" timeLoss="15.84" rerouteNo="1" devices="tripinfo_moto51 routing_moto51" vType="moto_motorcycle" speedFactor="1.05" vaporized=""/>
    <tripinfo id="veh44" depart="42.00" departLane="-172067277#4_0" departPos="5.10" departSpeed="0.00" departDelay="0.08" arrival="211.00" arrivalLane="22961324#5_0" arrivalPos="0.20" arrivalSpeed="7.48" duration="169.00" routeLength="1084.98" waitingTime="7.00" waitingCount="2" stopTime="0.00" timeLoss="28.53" rerouteNo="1" devices="tripinfo_veh44 routing_veh44" vType="veh_passenger" speedFactor="0.88" vaporized=""/>
    <tripinfo id="veh115" depart="110.00" departLane="-28037925#1_0" departPos="5.10" departSpeed="0.00" departDelay="0.43" arrival="211.00" arrivalLane="-187164860#0_2" arrivalPos="25.30" arrivalSpeed="11.21" duration="101.00" routeLength="1134.79" waitingTime="0.00" waitingCount="0" stopTime="0.00" timeLoss="28.39" rerouteNo="1" devices="tripinfo_veh115 routing_veh115" vType="veh_passenger" speedFactor="0.99" vaporized=""/>
    <tripinfo id="moto21" depart="60.00" departLane="-159257673#0_0" departPos="2.30" departSpeed="0.00" departDelay="0.29" arrival="211.00" arrivalLane="28038166_0" arrivalPos="32.53" arrivalSpeed="10.91" duration="151.00" routeLength="1855.12" waitingTime="21.00" waitingCount="2" stopTime="0.00" timeLoss="46.82" rerouteNo="1" devices="tripinfo_moto21 routing_moto21" vType="moto_motorcycle" speedFactor="0.94" vaporized=""/>