<?xml version="1.0" encoding="UTF-8"?>

<!-- generated on 04/01/21 16:17:42 by Eclipse SUMO GUI Version v1_8_0+1742-ceeb7fe3f3
<configuration xmlns:xsi="http://www.w3.org/2001/XMLSchema-instance" xsi:noNamespaceSchemaLocation="http://sumo.dlr.de/xsd/sumoConfiguration.xsd">

    <input>
        <net-file value="data/osm.net.xml"/>
        <route-files value="data/osm.passenger.trips.xml,data/osm.bicycle.trips.xml,data/osm.truck.trips.xml,data/osm.motorcycle.trips.xml,data/osm.bus.trips.xml,data/electricvehicles.rou.xml"/>
        <additional-files value="data/Manchester_additionals.add.xml"/>
    </input>

    <output>
        <chargingstations-output value="data/Manchester_chargingstations.xml"/>
        <tripinfo-output value="tripinfo.xml"/>
    </output>

    <processing>
        <ignore-route-errors value="true"/>
    </processing>

    <routing>
        <device.rerouting.adaptation-steps value="180"/>
    </routing>

    <report>
        <verbose value="true"/>
        <duration-log.statistics value="true"/>
        <no-step-log value="true"/>
    </report>

    <traci_server>
        <remote-port value="56085"/>
    </traci_server>

    <gui_only>
        <gui-settings-file value="data/osm.view.xml"/>
    </gui_only>

</configuration>
-->

<tripinfos xmlns:xsi="http://www.w3.org/2001/XMLSchema-instance" xsi:noNamespaceSchemaLocation="http://sumo.dlr.de/xsd/tripinfo_file.xsd">
    <tripinfo id="truck1" depart="2.00" departLane="-28039904#0_0" departPos="7.20" departSpeed="0.00" departDelay="0.57" arrival="70.00" arrivalLane="-28011532#3_0" arrivalPos="84.90" arrivalSpeed="20.00" duration="68.00" routeLength="919.93" waitingTime="0.00" waitingCount="0" stopTime="0.00" timeLoss="17.88" rerouteNo="1" devices="tripinfo_truck1 routing_truck1" vType="truck_truck" speedFactor="0.92" vaporized=""/>
    <tripinfo id="moto0" depart="0.00" departLane="-28039428_0" departPos="2.30" departSpeed="0.00" departDelay="0.00" arrival="82.00" arrivalLane="-28011515#4_0" arrivalPos="51.77" arrivalSpeed="12.26" duration="82.00" routeLength="983.24" waitingTime="8.00" waitingCount="1" stopTime="0.00" timeLoss="31.77" rerouteNo="1" devices="tripinfo_moto0 routing_moto0" vType="moto_motorcycle" speedFactor="1.05" vaporized=""/>
    <tripinfo id="moto13" depart="37.00" departLane="-37077845_0" departPos="2.30" departSpeed="0.00" departDelay="0.04" arrival="95.00" arrivalLane="-28038972#1_0" arrivalPos="0.20" arrivalSpeed="3.43" duration="58.00" routeLength="531.55" waitingTime="0.00" waitingCount="0" stopTime="0.00" timeLoss="14.42" rerouteNo="1" devices="tripinfo_moto13 routing_moto13" vType="moto_motorcycle" speedFactor="0.94" vaporized=""/>
    <tripinfo id="bike1" depart="2.00" departLane="-299268501#1_0" departPos="1.70" departSpeed="0.00" departDelay="0.55" arrival="97.00" arrivalLane="-28022453#0_0" arrivalPos="46.20" arrivalSpeed="5.34" duration="95.00" routeLength="477.50" waitingTime="0.00" waitingCount="0" stopTime="0.00" timeLoss="8.36" rerouteNo="1" devices="tripinfo_bike1 routing_bike1" vType="bike_bicycle" speedFactor="1.08" vaporized=""/>
    <tripinfo id="moto1" depart="3.00" departLane="119926723#3_1" departPos="2.30" departSpeed="0.00" departDelay="0.16" arrival="101.00" arrivalLane="-155731249#10_0" arrivalPos="33.61" arrivalSpeed="16.21" duration="98.00" routeLength="1116.69" waitingTime="0.00" waitingCount="0" stopTime="0.00" timeLoss="16.68" rerouteNo="1" devices="tripinfo_moto1 routing_moto1" vType="moto_motorcycle" speedFactor="0.89" vaporized=""/>
    <tripinfo id="moto17" depart="49.00" departLane="28038923#2_0" departPos="2.30" departSpeed="0.00" departDelay="0.67" arrival="105.00" arrivalLane="163383627#2_0" arrivalPos="57.68" arrivalSpeed="8.33" duration="56.00" routeLength="404.94" waitingTime="4.00" waitingCount="1" stopTime="0.00" timeLoss="19.78" rerouteNo="1" devices="tripinfo_moto17 routing_moto17" vType="moto_motorcycle" speedFactor="0.96" vaporized=""/>
    <tripinfo id="veh40" depart="39.00" departLane="184507808#2_0" departPos="5.10" departSpeed="0.00" departDelay="0.89" arrival="113.00" arrivalLane="589896293#1_0" arrivalPos="90.03" arrivalSpeed="13.35" duration="74.00" routeLength="725.47" waitingTime="0.00" waitingCount="0" stopTime="0.00" timeLoss="10.75" rerouteNo="1" devices="tripinfo_veh40 routing_veh40" vType="veh_passenger" speedFactor="1.04" vaporized=""/>
    <tripinfo id="bike29" depart="42.00" departLane="-261710559_0" departPos="1.70" departSpeed="0.00" departDelay="0.07" arrival="114.00" arrivalLane="-679297889_0" arrivalPos="45.46" arrivalSpeed="5.04" duration="72.00" routeLength="340.84" waitingTime="0.00" waitingCount="0" stopTime="0.00" timeLoss="7.56" rerouteNo="1" devices="tripinfo_bike29 routing_bike29" vType="bike_bicycle" speedFactor="0.91" vaporized=""/>
    <tripinfo id="moto12" depart="35.00" departLane="37077810_0" departPos="2.30" departSpeed="0.00" departDelay="0.88" arrival="124.00" arrivalLane="28039381#1_0" arrivalPos="25.03" arrivalSpeed="17.26" duration="89.00" routeLength="821.44" waitingTime="16.00" waitingCount="1" stopTime="0.00" timeLoss="29.20" rerouteNo="1" devices="tripinfo_moto12 routing_moto12" vType="moto_motorcycle" speedFactor="1.04" vaporized=""/>
    <tripinfo id="veh25" depart="24.00" departLane="-28174535#0_0" departPos="5.10" departSpeed="0.00" departDelay="0.18" arrival="125.00" arrivalLane="75354227#0_0" arrivalPos="47.23" arrivalSpeed="9.27" duration="101.00" routeLength="868.32" waitingTime="0.00" waitingCount="0" stopTime="0.00" timeLoss="16.59" rerouteNo="1" devices="tripinfo_veh25 routing_veh25" vType="veh_passenger" speedFactor="1.18" vaporized=""/>
    <tripinfo id="moto10" depart="29.00" departLane="856282420#1_1" departPos="2.30" departSpeed="0.00" departDelay="0.57" arrival="127.00" arrivalLane="242821398#1_0" arrivalPos="33.35" arrivalSpeed="12.57" duration="98.00" routeLength="983.07" waitingTime="0.00" waitingCount="0" stopTime="0.00" timeLoss="16.99" rerouteNo="1" devices="tripinfo_moto10 routing_moto10" vType="moto_motorcycle" speedFactor="1.06" vaporized=""/>
    <tripinfo id="veh33" depart="32.00" departLane="-47441333_0" departPos="5.10" departSpeed="0.00" departDelay="0.56" arrival="129.00" arrivalLane="-294963698#0_0" arrivalPos="9.59" arrivalSpeed="12.64" duration="97.00" routeLength="966.63" waitingTime="0.00" waitingCount="0" stopTime="0.00" timeLoss="36.68" rerouteNo="1" devices="tripinfo_veh33 routing_veh33" vType="veh_passenger" speedFactor="1.10" vaporized=""/>
    <tripinfo id="moto4" depart="12.00" departLane="163383614#0_0" departPos="2.30" departSpeed="0.00" departDelay="0.63" arrival="130.00" arrivalLane="81021292#3_0" arrivalPos="15.50" arrivalSpeed="6.31" duration="118.00" routeLength="1316.03" waitingTime="1.00" waitingCount="1" stopTime="0.00" timeLoss="21.57" rerouteNo="1" devices="tripinfo_moto4 routing_moto4" vType="moto_motorcycle" speedFactor="1.01" vaporized=""/>
    <tripinfo id="moto7" depart="20.00" departLane="23118342#4_0" departPos="2.30" departSpeed="0.00" departDelay="0.10" arrival="130.00" arrivalLane="-64432425#1_0" arrivalPos="34.19" arrivalSpeed="7.19" duration="110.00" routeLength="1063.75" waitingTime="0.00" waitingCount="0" stopTime="0.00" timeLoss="19.07" rerouteNo="1" devices="tripinfo_moto7 routing_moto7" vType="moto_motorcycle" speedFactor="1.06" vaporized=""/>
    <tripinfo id="veh11" depart="11.00" departLane="79716901_0" departPos="5.10" departSpeed="0.00" departDelay="0.52" arrival="133.00" arrivalLane="-620786548_0" arrivalPos="51.50" arrivalSpeed="12.88" duration="122.00" routeLength="1418.98" waitingTime="0.00" waitingCount="0" stopTime="0.00" timeLoss="24.97" rerouteNo="1" devices="tripinfo_veh11 routing_veh11" vType="veh_passenger" speedFactor="0.94" vaporized=""/>
    <tripinfo id="veh42" depart="41.00" departLane="930354#2-AddedOnRampEdge_1" departPos="5.10" departSpeed="0.00" departDelay="0.98" arrival="139.00" arrivalLane="159238289#0_0" arrivalPos="56.92" arrivalSpeed="13.02" duration="98.00" routeLength="1098.07" waitingTime="0.00" waitingCount="0" stopTime="0.00" timeLoss="14.30" rerouteNo="1" devices="tripinfo_veh42 routing_veh42" vType="veh_passenger" speedFactor="1.00" vaporized=""/>
    <tripinfo id="moto3" depart="9.00" departLane="341760642#2_0" departPos="2.30" departSpeed="0.00" departDelay="0.47" arrival="145.00" arrivalLane="28020826#2_0" arrivalPos="104.24" arrivalSpeed="18.23" duration="136.00" routeLength="1572.63" waitingTime="1.00" waitingCount="1" stopTime="0.00" timeLoss="23.28" rerouteNo="1" devices="tripinfo_moto3 routing_moto3" vType="moto_motorcycle" speedFactor="0.92" vaporized=""/>
    <tripinfo id="moto15" depart="43.00" departLane="-28038945#0_0" departPos="2.30" departSpeed="0.00" departDelay="0.35" arrival="146.00" arrivalLane="-28037774#0_0" arrivalPos="0.20" arrivalSpeed="7.23" duration="103.00" routeLength="1077.51" waitingTime="0.00" waitingCount="0" stopTime="0.00" timeLoss="25.18" rerouteNo="1" devices="tripinfo_moto15 routing_moto15" vType="moto_motorcycle" speedFactor="1.02" vaporized=""/>
    <tripinfo id="moto16" depart="46.00" departLane="-163566219#1_0" departPos="2.30" departSpeed="0.00" departDelay="0.51" arrival="150.00" arrivalLane="-156340399#0_0" arrivalPos="56.16" arrivalSpeed="8.39" duration="104.00" routeLength="939.01" waitingTime="0.00" waitingCount="0" stopTime="0.00" timeLoss="23.78" rerouteNo="1" devices="tripinfo_moto16 routing_moto16" vType="moto_motorcycle" speedFactor="1.04" vaporized=""/>
    <tripinfo id="bus7" depart="20.00" departLane="334451178_0" departPos="12.10" departSpeed="0.00" departDelay="0.09" arrival="150.00" arrivalLane="27943846#2_0" arrivalPos="51.60" arrivalSpeed="13.35" duration="130.00" routeLength="1122.04" waitingTime="2.00" waitingCount="1" stopTime="0.00" timeLoss="30.57" rerouteNo="1" devices="tripinfo_bus7 routing_bus7" vType="bus_bus" speedFactor="1.00" vaporized=""/>
    <tripinfo id="veh55" depart="53.00" departLane="159131934#1_0" departPos="3.63" departSpeed="0.00" departDelay="0.60" arrival="151.00" arrivalLane="-27930076#3_0" arrivalPos="19.99" arrivalSpeed="8.75" duration="98.00" routeLength="862.51" waitingTime="5.00" waitingCount="1" stopTime="0.00" timeLoss="28.73" rerouteNo="1" devices="tripinfo_veh55 routing_veh55" vType="veh_passenger" speedFactor="0.97" vaporized=""/>
    <tripinfo id="bus27" depart="77.00" departLane="37077810_0" departPos="12.10" departSpeed="0.00" departDelay="0.21" arrival="151.00" arrivalLane="28039382#1_0" arrivalPos="67.63" arrivalSpeed="13.70" duration="74.00" routeLength="761.14" waitingTime="0.00" waitingCount="0" stopTime="0.00" timeLoss="16.16" rerouteNo="1" devices="tripinfo_bus27 routing_bus27" vType="bus_bus" speedFactor="1.00" vaporized=""/>
    <tripinfo id="veh60" depart="58.00" departLane="28285549_0" departPos="5.10" departSpeed="0.00" departDelay="0.83" arrival="152.00" arrivalLane="163566171#0_0" arrivalPos="54.36" arrivalSpeed="11.92" duration="94.00" routeLength="711.44" waitingTime="5.00" waitingCount="1" stopTime="0.00" timeLoss="25.72" rerouteNo="1" devices="tripinfo_veh60 routing_veh60" vType="veh_passenger" speedFactor="0.94" vaporized=""/>
    <tripinfo id="moto2" depart="6.00" departLane="-163566238#3_0" departPos="2.30" departSpeed="0.00" departDelay="0.31" arrival="152.00" arrivalLane="-168608383#0_0" arrivalPos="29.42" arrivalSpeed="13.82" duration="146.00" routeLength="1452.13" waitingTime="15.00" waitingCount="2" stopTime="0.00" timeLoss="46.65" rerouteNo="1" devices="tripinfo_moto2 routing_moto2" vType="moto_motorcycle" speedFactor="1.12" vaporized=""/>
    <tripinfo id="bike67" depart="97.00" departLane="-171593597#2_0" departPos="1.70" departSpeed="0.00" departDelay="0.14" arrival="155.00" arrivalLane="145039120#3_0" arrivalPos="0.33" arrivalSpeed="5.19" duration="58.00" routeLength="281.35" waitingTime="0.00" waitingCount="0" stopTime="0.00" timeLoss="6.86" rerouteNo="1" devices="tripinfo_bike67 routing_bike67" vType="bike_bicycle" speedFactor="0.98" vaporized=""/>
    <tripinfo id="veh113" depart="108.00" departLane="-163566150#1_0" departPos="5.10" departSpeed="0.00" departDelay="0.34" arrival="157.00" arrivalLane="-27942630#1_0" arrivalPos="31.91" arrivalSpeed="15.11" duration="49.00" routeLength="639.44" waitingTime="0.00" waitingCount="0" stopTime="0.00" timeLoss="8.00" rerouteNo="1" devices="tripinfo_veh113 routing_veh113" vType="veh_passenger" speedFactor="1.18" vaporized=""/>
</tripinfos>
