<?xml version="1.0" encoding="UTF-8"?>

<!-- generated on 01/11/21 10:33:29 by Eclipse SUMO GUI Version 1.7.0
<configuration xmlns:xsi="http://www.w3.org/2001/XMLSchema-instance" xsi:noNamespaceSchemaLocation="http://sumo.dlr.de/xsd/sumoConfiguration.xsd">

    <input>
        <net-file value="data/EVGrid.net.xml"/>
        <route-files value="data/electricvehicles.rou.xml"/>
    </input>

    <output>
        <emission-output value="emission-output.xml"/>
        <battery-output value="data/battery.out.xml"/>
        <battery-output.precision value="4"/>
        <summary-output value="data/summary-overview.xml"/>
        <tripinfo-output value="tripinfo.xml"/>
    </output>

    <processing>
        <lateral-resolution value="1"/>
    </processing>

    <battery>
        <device.battery.probability value="1"/>
    </battery>

    <traci_server>
        <remote-port value="50398"/>
    </traci_server>

</configuration>
-->

<emission-export xmlns:xsi="http://www.w3.org/2001/XMLSchema-instance" xsi:noNamespaceSchemaLocation="http://sumo.dlr.de/xsd/emission_file.xsd">
    <timestep time="0.00">
        <vehicle id="EV1" eclass="Energy/default" CO2="0.00" CO="0.00" HC="0.00" NOx="0.00" PMx="0.00" fuel="0.00" electricity="0.03" noise="55.94" route="trip" type="electricvehicle" waiting="0.00" lane="gneE0_0" pos="5.10" speed="0.00" angle="180.00" x="-4.80" y="244.90"/>
    </timestep>
    <timestep time="1.00">
        <vehicle id="EV1" eclass="Energy/default" CO2="0.00" CO="0.00" HC="0.00" NOx="0.00" PMx="0.00" fuel="0.00" electricity="0.98" noise="59.24" route="trip" type="electricvehicle" waiting="0.00" lane="gneE0_0" pos="5.79" speed="0.69" angle="180.00" x="-4.80" y="244.21"/>
    </timestep>
    <timestep time="2.00">
        <vehicle id="EV1" eclass="Energy/default" CO2="0.00" CO="0.00" HC="0.00" NOx="0.00" PMx="0.00" fuel="0.00" electricity="2.15" noise="58.95" route="trip" type="electricvehicle" waiting="0.00" lane="gneE0_0" pos="7.06" speed="1.26" angle="180.00" x="-4.80" y="242.94"/>
    </timestep>
    <timestep time="3.00">
        <vehicle id="EV1" eclass="Energy/default" CO2="0.00" CO="0.00" HC="0.00" NOx="0.00" PMx="0.00" fuel="0.00" electricity="3.50" noise="59.31" route="trip" type="electricvehicle" waiting="0.00" lane="gneE0_0" pos="8.92" speed="1.86" angle="180.00" x="-4.80" y="241.08"/>
    </timestep>
    <timestep time="4.00">
        <vehicle id="EV1" eclass="Energy/default" CO2="0.00" CO="0.00" HC="0.00" NOx="0.00" PMx="0.00" fuel="0.00" electricity="6.41" noise="60.51" route="trip" type="electricvehicle" waiting="0.00" lane="gneE0_0" pos="11.58" speed="2.66" angle="180.00" x="-4.80" y="238.42"/>
    </timestep>
    <timestep time="5.00">
        <vehicle id="EV1" eclass="Energy/default" CO2="0.00" CO="0.00" HC="0.00" NOx="0.00" PMx="0.00" fuel="0.00" electricity="5.27" noise="59.34" route="trip" type="electricvehicle" waiting="0.00" lane="gneE0_0" pos="14.72" speed="3.14" angle="180.00" x="-4.80" y="235.28"/>
    </timestep>
    <timestep time="6.00">
        <vehicle id="EV1" eclass="Energy/default" CO2="0.00" CO="0.00" HC="0.00" NOx="0.00" PMx="0.00" fuel="0.00" electricity="5.59" noise="59.35" route="trip" type="electricvehicle" waiting="0.00" lane="gneE0_0" pos="18.29" speed="3.57" angle="180.00" x="-4.80" y="231.71"/>
    </timestep>
    <timestep time="7.00">
        <vehicle id="EV1" eclass="Energy/default" CO2="0.00" CO="0.00" HC="0.00" NOx="0.00" PMx="0.00" fuel="0.00" electricity="6.32" noise="59.57" route="trip" type="electricvehicle" waiting="0.00" lane="gneE0_0" pos="22.29" speed="4.00" angle="180.00" x="-4.80" y="227.71"/>
    </timestep>
    <timestep time="8.00">
        <vehicle id="EV1" eclass="Energy/default" CO2="0.00" CO="0.00" HC="0.00" NOx="0.00" PMx="0.00" fuel="0.00" electricity="10.22" noise="60.83" route="trip" type="electricvehicle" waiting="0.00" lane="gneE0_0" pos="26.95" speed="4.65" angle="180.00" x="-4.80" y="223.05"/>
    </timestep>
    <timestep time="9.00">
        <vehicle id="EV1" eclass="Energy/default" CO2="0.00" CO="0.00" HC="0.00" NOx="0.00" PMx="0.00" fuel="0.00" electricity="11.93" noise="61.22" route="trip" type="electricvehicle" waiting="0.00" lane="gneE0_0" pos="32.26" speed="5.32" angle="180.00" x="-4.80" y="217.74"/>
    </timestep>
    <timestep time="10.00">
        <vehicle id="EV1" eclass="Energy/default" CO2="0.00" CO="0.00" HC="0.00" NOx="0.00" PMx="0.00" fuel="0.00" electricity="10.55" noise="60.84" route="trip" type="electricvehicle" waiting="0.00" lane="gneE0_0" pos="38.08" speed="5.82" angle="180.00" x="-4.80" y="211.92"/>
    </timestep>
    <timestep time="11.00">
        <vehicle id="EV1" eclass="Energy/default" CO2="0.00" CO="0.00" HC="0.00" NOx="0.00" PMx="0.00" fuel="0.00" electricity="9.56" noise="60.67" route="trip" type="electricvehicle" waiting="0.00" lane="gneE0_0" pos="44.31" speed="6.22" angle="180.00" x="-4.80" y="205.69"/>
    </timestep>
    <timestep time="12.00">
        <vehicle id="EV1" eclass="Energy/default" CO2="0.00" CO="0.00" HC="0.00" NOx="0.00" PMx="0.00" fuel="0.00" electricity="17.16" noise="62.38" route="trip" type="electricvehicle" waiting="0.00" lane="gneE0_0" pos="51.26" speed="6.95" angle="180.00" x="-4.80" y="198.74"/>
    </timestep>
    <timestep time="13.00">
        <vehicle id="EV1" eclass="Energy/default" CO2="0.00" CO="0.00" HC="0.00" NOx="0.00" PMx="0.00" fuel="0.00" electricity="16.16" noise="62.25" route="trip" type="electricvehicle" waiting="0.00" lane="gneE0_0" pos="58.82" speed="7.56" angle="180.00" x="-4.80" y="191.18"/>
    </timestep>
    <timestep time="14.00">
        <vehicle id="EV1" eclass="Energy/default" CO2="0.00" CO="0.00" HC="0.00" NOx="0.00" PMx="0.00" fuel="0.00" electricity="20.73" noise="63.15" route="trip" type="electricvehicle" waiting="0.00" lane="gneE0_0" pos="67.11" speed="8.29" angle="175.70" x="-3.80" y="182.89"/>
    </timestep>
    <timestep time="15.00">
        <vehicle id="EV1" eclass="Energy/default" CO2="0.00" CO="0.00" HC="0.00" NOx="0.00" PMx="0.00" fuel="0.00" electricity="17.34" noise="62.77" route="trip" type="electricvehicle" waiting="0.00" lane="gneE0_1" pos="75.95" speed="8.83" angle="175.86" x="-2.80" y="174.05"/>
    </timestep>
    <timestep time="16.00">
        <vehicle id="EV1" eclass="Energy/default" CO2="0.00" CO="0.00" HC="0.00" NOx="0.00" PMx="0.00" fuel="0.00" electricity="16.91" noise="62.88" route="trip" type="electricvehicle" waiting="0.00" lane="gneE0_1" pos="85.26" speed="9.32" angle="176.00" x="-1.80" y="164.74"/>
    </timestep>
    <timestep time="17.00">
        <vehicle id="EV1" eclass="Energy/default" CO2="0.00" CO="0.00" HC="0.00" NOx="0.00" PMx="0.00" fuel="0.00" electricity="25.49" noise="64.20" route="trip" type="electricvehicle" waiting="0.00" lane="gneE0_1" pos="95.31" speed="10.05" angle="179.24" x="-1.60" y="154.69"/>
    </timestep>
    <timestep time="18.00">
        <vehicle id="EV1" eclass="Energy/default" CO2="0.00" CO="0.00" HC="0.00" NOx="0.00" PMx="0.00" fuel="0.00" electricity="19.64" noise="63.70" route="trip" type="electricvehicle" waiting="0.00" lane="gneE0_1" pos="105.85" speed="10.54" angle="180.00" x="-1.60" y="144.15"/>
    </timestep>
    <timestep time="19.00">
        <vehicle id="EV1" eclass="Energy/default" CO2="0.00" CO="0.00" HC="0.00" NOx="0.00" PMx="0.00" fuel="0.00" electricity="27.49" noise="64.79" route="trip" type="electricvehicle" waiting="0.00" lane="gneE0_1" pos="117.09" speed="11.24" angle="180.00" x="-1.60" y="132.91"/>
    </timestep>
    <timestep time="20.00">
        <vehicle id="EV1" eclass="Energy/default" CO2="0.00" CO="0.00" HC="0.00" NOx="0.00" PMx="0.00" fuel="0.00" electricity="28.90" noise="65.17" route="trip" type="electricvehicle" waiting="0.00" lane="gneE0_1" pos="129.01" speed="11.92" angle="180.00" x="-1.60" y="120.99"/>
    </timestep>
    <timestep time="21.00">
        <vehicle id="EV1" eclass="Energy/default" CO2="0.00" CO="0.00" HC="0.00" NOx="0.00" PMx="0.00" fuel="0.00" electricity="29.90" noise="65.52" route="trip" type="electricvehicle" waiting="0.00" lane="gneE0_1" pos="141.58" speed="12.58" angle="180.00" x="-1.60" y="108.42"/>
    </timestep>
    <timestep time="22.00">
        <vehicle id="EV1" eclass="Energy/default" CO2="0.00" CO="0.00" HC="0.00" NOx="0.00" PMx="0.00" fuel="0.00" electricity="24.19" noise="65.27" route="trip" type="electricvehicle" waiting="0.00" lane="gneE0_1" pos="154.64" speed="13.06" angle="180.00" x="-1.60" y="95.36"/>
    </timestep>
    <timestep time="23.00">
        <vehicle id="EV1" eclass="Energy/default" CO2="0.00" CO="0.00" HC="0.00" NOx="0.00" PMx="0.00" fuel="0.00" electricity="27.16" noise="65.74" route="trip" type="electricvehicle" waiting="0.00" lane="gneE0_1" pos="168.22" speed="13.58" angle="180.00" x="-1.60" y="81.78"/>
    </timestep>
    <timestep time="24.00">
        <vehicle id="EV1" eclass="Energy/default" CO2="0.00" CO="0.00" HC="0.00" NOx="0.00" PMx="0.00" fuel="0.00" electricity="23.13" noise="65.67" route="trip" type="electricvehicle" waiting="0.00" lane="gneE0_1" pos="182.21" speed="13.99" angle="180.00" x="-1.60" y="67.79"/>
    </timestep>
    <timestep time="25.00">
        <vehicle id="EV1" eclass="Energy/default" CO2="0.00" CO="0.00" HC="0.00" NOx="0.00" PMx="0.00" fuel="0.00" electricity="33.93" noise="66.69" route="trip" type="electricvehicle" waiting="0.00" lane="gneE0_1" pos="196.83" speed="14.62" angle="180.00" x="-1.60" y="53.17"/>
    </timestep>
    <timestep time="26.00">
        <vehicle id="EV1" eclass="Energy/default" CO2="0.00" CO="0.00" HC="0.00" NOx="0.00" PMx="0.00" fuel="0.00" electricity="-1.20" noise="64.59" route="trip" type="electricvehicle" waiting="0.00" lane="gneE0_1" pos="211.28" speed="14.45" angle="180.00" x="-1.60" y="38.72"/>
    </timestep>
    <timestep time="27.00">
        <vehicle id="EV1" eclass="Energy/default" CO2="0.00" CO="0.00" HC="0.00" NOx="0.00" PMx="0.00" fuel="0.00" electricity="16.81" noise="65.67" route="trip" type="electricvehicle" waiting="0.00" lane="gneE0_1" pos="225.96" speed="14.68" angle="180.00" x="-1.60" y="24.04"/>
    </timestep>
    <timestep time="28.00">
        <vehicle id="EV1" eclass="Energy/default" CO2="0.00" CO="0.00" HC="0.00" NOx="0.00" PMx="0.00" fuel="0.00" electricity="-88.60" noise="59.63" route="trip" type="electricvehicle" waiting="0.00" lane="gneE0_1" pos="237.87" speed="11.91" angle="180.00" x="-1.60" y="12.13"/>
    </timestep>
    <timestep time="29.00">
        <vehicle id="EV1" eclass="Energy/default" CO2="0.00" CO="0.00" HC="0.00" NOx="0.00" PMx="0.00" fuel="0.00" electricity="-99.83" noise="53.89" route="trip" type="electricvehicle" waiting="0.00" lane="gneE0_1" pos="245.63" speed="7.76" angle="180.00" x="-1.60" y="4.37"/>
    </timestep>
    <timestep time="30.00">
        <vehicle id="EV1" eclass="Energy/default" CO2="0.00" CO="0.00" HC="0.00" NOx="0.00" PMx="0.00" fuel="0.00" electricity="1.81" noise="59.42" route="trip" type="electricvehicle" waiting="0.00" lane=":p1_2_0" pos="7.20" speed="7.58" angle="162.36" x="0.09" y="-2.87"/>
    </timestep>
    <timestep time="31.00">
        <vehicle id="EV1" eclass="Energy/default" CO2="0.00" CO="0.00" HC="0.00" NOx="0.00" PMx="0.00" fuel="0.00" electricity="14.59" noise="59.76" route="trip" type="electricvehicle" waiting="0.00" lane="gneE14_0" pos="2.98" speed="7.51" angle="85.43" x="6.98" y="-3.80"/>
    </timestep>
    <timestep time="32.00">
        <vehicle id="EV1" eclass="Energy/default" CO2="0.00" CO="0.00" HC="0.00" NOx="0.00" PMx="0.00" fuel="0.00" electricity="13.44" noise="61.71" route="trip" type="electricvehicle" waiting="0.00" lane="gneE14_1" pos="10.90" speed="7.91" angle="85.57" x="14.90" y="-2.80"/>
    </timestep>
    <timestep time="33.00">
        <vehicle id="EV1" eclass="Energy/default" CO2="0.00" CO="0.00" HC="0.00" NOx="0.00" PMx="0.00" fuel="0.00" electricity="16.23" noise="62.48" route="trip" type="electricvehicle" waiting="0.00" lane="gneE14_1" pos="19.34" speed="8.44" angle="85.75" x="23.34" y="-1.80"/>
    </timestep>
    <timestep time="34.00">
        <vehicle id="EV1" eclass="Energy/default" CO2="0.00" CO="0.00" HC="0.00" NOx="0.00" PMx="0.00" fuel="0.00" electricity="24.41" noise="63.86" route="trip" type="electricvehicle" waiting="0.00" lane="gneE14_1" pos="28.55" speed="9.22" angle="89.19" x="32.55" y="-1.60"/>
    </timestep>
    <timestep time="35.00">
        <vehicle id="EV1" eclass="Energy/default" CO2="0.00" CO="0.00" HC="0.00" NOx="0.00" PMx="0.00" fuel="0.00" electricity="21.86" noise="63.69" route="trip" type="electricvehicle" waiting="0.00" lane="gneE14_1" pos="38.39" speed="9.84" angle="90.00" x="42.39" y="-1.60"/>
    </timestep>
    <timestep time="36.00">
        <vehicle id="EV1" eclass="Energy/default" CO2="0.00" CO="0.00" HC="0.00" NOx="0.00" PMx="0.00" fuel="0.00" electricity="16.15" noise="63.19" route="trip" type="electricvehicle" waiting="0.00" lane="gneE14_1" pos="48.64" speed="10.24" angle="90.00" x="52.64" y="-1.60"/>
    </timestep>
    <timestep time="37.00">
        <vehicle id="EV1" eclass="Energy/default" CO2="0.00" CO="0.00" HC="0.00" NOx="0.00" PMx="0.00" fuel="0.00" electricity="19.87" noise="63.80" route="trip" type="electricvehicle" waiting="0.00" lane="gneE14_1" pos="59.37" speed="10.73" angle="90.00" x="63.37" y="-1.60"/>
    </timestep>
    <timestep time="38.00">
        <vehicle id="EV1" eclass="Energy/default" CO2="0.00" CO="0.00" HC="0.00" NOx="0.00" PMx="0.00" fuel="0.00" electricity="18.02" noise="63.81" route="trip" type="electricvehicle" waiting="0.00" lane="gneE14_1" pos="70.51" speed="11.14" angle="90.00" x="74.51" y="-1.60"/>
    </timestep>
    <timestep time="39.00">
        <vehicle id="EV1" eclass="Energy/default" CO2="0.00" CO="0.00" HC="0.00" NOx="0.00" PMx="0.00" fuel="0.00" electricity="21.56" noise="64.37" route="trip" type="electricvehicle" waiting="0.00" lane="gneE14_1" pos="82.14" speed="11.63" angle="90.00" x="86.14" y="-1.60"/>
    </timestep>
    <timestep time="40.00">
        <vehicle id="EV1" eclass="Energy/default" CO2="0.00" CO="0.00" HC="0.00" NOx="0.00" PMx="0.00" fuel="0.00" electricity="21.53" noise="64.59" route="trip" type="electricvehicle" waiting="0.00" lane="gneE14_1" pos="94.23" speed="12.09" angle="90.00" x="98.23" y="-1.60"/>
    </timestep>
    <timestep time="41.00">
        <vehicle id="EV1" eclass="Energy/default" CO2="0.00" CO="0.00" HC="0.00" NOx="0.00" PMx="0.00" fuel="0.00" electricity="20.58" noise="64.71" route="trip" type="electricvehicle" waiting="0.00" lane="gneE14_1" pos="106.73" speed="12.50" angle="93.27" x="110.73" y="-2.60"/>
    </timestep>
    <timestep time="42.00">
        <vehicle id="EV1" eclass="Energy/default" CO2="0.00" CO="0.00" HC="0.00" NOx="0.00" PMx="0.00" fuel="0.00" electricity="35.73" noise="66.27" route="trip" type="electricvehicle" waiting="0.00" lane="gneE14_0" pos="120.00" speed="13.27" angle="93.13" x="124.00" y="-3.60"/>
    </timestep>
    <timestep time="43.00">
        <vehicle id="EV1" eclass="Energy/default" CO2="0.00" CO="0.00" HC="0.00" NOx="0.00" PMx="0.00" fuel="0.00" electricity="29.93" noise="66.06" route="trip" type="electricvehicle" waiting="0.00" lane="gneE14_0" pos="133.85" speed="13.85" angle="93.04" x="137.85" y="-4.60"/>
    </timestep>
    <timestep time="44.00">
        <vehicle id="EV1" eclass="Energy/default" CO2="0.00" CO="0.00" HC="0.00" NOx="0.00" PMx="0.00" fuel="0.00" electricity="33.31" noise="66.58" route="trip" type="electricvehicle" waiting="0.00" lane="gneE14_0" pos="148.31" speed="14.47" angle="90.59" x="152.31" y="-4.80"/>
    </timestep>
    <timestep time="45.00">
        <vehicle id="EV1" eclass="Energy/default" CO2="0.00" CO="0.00" HC="0.00" NOx="0.00" PMx="0.00" fuel="0.00" electricity="4.78" noise="64.89" route="trip" type="electricvehicle" waiting="0.00" lane="gneE14_0" pos="162.75" speed="14.44" angle="90.00" x="166.75" y="-4.80"/>
    </timestep>
    <timestep time="46.00">
        <vehicle id="EV1" eclass="Energy/default" CO2="0.00" CO="0.00" HC="0.00" NOx="0.00" PMx="0.00" fuel="0.00" electricity="14.64" noise="65.52" route="trip" type="electricvehicle" waiting="0.00" lane="gneE14_0" pos="177.38" speed="14.63" angle="90.00" x="181.38" y="-4.80"/>
    </timestep>
    <timestep time="47.00">
        <vehicle id="EV1" eclass="Energy/default" CO2="0.00" CO="0.00" HC="0.00" NOx="0.00" PMx="0.00" fuel="0.00" electricity="4.53" noise="64.97" route="trip" type="electricvehicle" waiting="0.00" lane="gneE14_0" pos="191.97" speed="14.59" angle="90.00" x="195.97" y="-4.80"/>
    </timestep>
    <timestep time="48.00">
        <vehicle id="EV1" eclass="Energy/default" CO2="0.00" CO="0.00" HC="0.00" NOx="0.00" PMx="0.00" fuel="0.00" electricity="10.59" noise="65.34" route="trip" type="electricvehicle" waiting="0.00" lane="gneE14_0" pos="206.66" speed="14.69" angle="90.00" x="210.66" y="-4.80"/>
    </timestep>
    <timestep time="49.00">
        <vehicle id="EV1" eclass="Energy/default" CO2="0.00" CO="0.00" HC="0.00" NOx="0.00" PMx="0.00" fuel="0.00" electricity="-3.56" noise="64.47" route="trip" type="electricvehicle" waiting="0.00" lane="gneE14_0" pos="221.11" speed="14.45" angle="90.00" x="225.11" y="-4.80"/>
    </timestep>
    <timestep time="50.00">
        <vehicle id="EV1" eclass="Energy/default" CO2="0.00" CO="0.00" HC="0.00" NOx="0.00" PMx="0.00" fuel="0.00" electricity="12.54" noise="65.38" route="trip" type="electricvehicle" waiting="0.00" lane=":p9_4_0" pos="0.11" speed="14.60" angle="90.00" x="239.71" y="-4.80"/>
    </timestep>
    <timestep time="51.00">
        <vehicle id="EV1" eclass="Energy/default" CO2="0.00" CO="0.00" HC="0.00" NOx="0.00" PMx="0.00" fuel="0.00" electricity="6.12" noise="65.05" route="trip" type="electricvehicle" waiting="0.00" lane="gneE12_0" pos="0.30" speed="14.59" angle="90.00" x="254.30" y="-4.80"/>
    </timestep>
    <timestep time="52.00">
        <vehicle id="EV1" eclass="Energy/default" CO2="0.00" CO="0.00" HC="0.00" NOx="0.00" PMx="0.00" fuel="0.00" electricity="3.37" noise="64.88" route="trip" type="electricvehicle" waiting="0.00" lane="gneE12_0" pos="14.84" speed="14.53" angle="90.00" x="268.84" y="-4.80"/>
    </timestep>
    <timestep time="53.00">
        <vehicle id="EV1" eclass="Energy/default" CO2="0.00" CO="0.00" HC="0.00" NOx="0.00" PMx="0.00" fuel="0.00" electricity="9.31" noise="65.22" route="trip" type="electricvehicle" waiting="0.00" lane="gneE12_0" pos="29.44" speed="14.60" angle="90.00" x="283.44" y="-4.80"/>
    </timestep>
    <timestep time="54.00">
        <vehicle id="EV1" eclass="Energy/default" CO2="0.00" CO="0.00" HC="0.00" NOx="0.00" PMx="0.00" fuel="0.00" electricity="-4.87" noise="64.31" route="trip" type="electricvehicle" waiting="0.00" lane="gneE12_0" pos="43.77" speed="14.33" angle="90.00" x="297.77" y="-4.80"/>
    </timestep>
    <timestep time="55.00">
        <vehicle id="EV1" eclass="Energy/default" CO2="0.00" CO="0.00" HC="0.00" NOx="0.00" PMx="0.00" fuel="0.00" electricity="12.65" noise="65.32" route="trip" type="electricvehicle" waiting="0.00" lane="gneE12_0" pos="58.25" speed="14.48" angle="90.00" x="312.25" y="-4.80"/>
    </timestep>
    <timestep time="56.00">
        <vehicle id="EV1" eclass="Energy/default" CO2="0.00" CO="0.00" HC="0.00" NOx="0.00" PMx="0.00" fuel="0.00" electricity="0.98" noise="64.65" route="trip" type="electricvehicle" waiting="0.00" lane="gneE12_0" pos="72.62" speed="14.37" angle="90.00" x="326.62" y="-4.80"/>
    </timestep>
    <timestep time="57.00">
        <vehicle id="EV1" eclass="Energy/default" CO2="0.00" CO="0.00" HC="0.00" NOx="0.00" PMx="0.00" fuel="0.00" electricity="16.13" noise="65.58" route="trip" type="electricvehicle" waiting="0.00" lane="gneE12_0" pos="87.21" speed="14.59" angle="90.00" x="341.21" y="-4.80"/>
    </timestep>
    <timestep time="58.00">
        <vehicle id="EV1" eclass="Energy/default" CO2="0.00" CO="0.00" HC="0.00" NOx="0.00" PMx="0.00" fuel="0.00" electricity="10.44" noise="65.33" route="trip" type="electricvehicle" waiting="0.00" lane="gneE12_0" pos="101.89" speed="14.68" angle="90.00" x="355.89" y="-4.80"/>
    </timestep>
    <timestep time="59.00">
        <vehicle id="EV1" eclass="Energy/default" CO2="0.00" CO="0.00" HC="0.00" NOx="0.00" PMx="0.00" fuel="0.00" electricity="-5.80" noise="64.30" route="trip" type="electricvehicle" waiting="0.00" lane="gneE12_0" pos="116.28" speed="14.39" angle="90.00" x="370.28" y="-4.80"/>
    </timestep>
    <timestep time="60.00">
        <vehicle id="EV1" eclass="Energy/default" CO2="0.00" CO="0.00" HC="0.00" NOx="0.00" PMx="0.00" fuel="0.00" electricity="16.34" noise="65.60" route="trip" type="electricvehicle" waiting="0.00" lane="gneE12_0" pos="130.89" speed="14.61" angle="90.00" x="384.89" y="-4.80"/>
    </timestep>
    <timestep time="61.00">
        <vehicle id="EV1" eclass="Energy/default" CO2="0.00" CO="0.00" HC="0.00" NOx="0.00" PMx="0.00" fuel="0.00" electricity="6.44" noise="65.09" route="trip" type="electricvehicle" waiting="0.00" lane="gneE12_0" pos="145.51" speed="14.62" angle="90.00" x="399.51" y="-4.80"/>
    </timestep>
    <timestep time="62.00">
        <vehicle id="EV1" eclass="Energy/default" CO2="0.00" CO="0.00" HC="0.00" NOx="0.00" PMx="0.00" fuel="0.00" electricity="1.24" noise="64.76" route="trip" type="electricvehicle" waiting="0.00" lane="gneE12_0" pos="160.02" speed="14.51" angle="90.00" x="414.02" y="-4.80"/>
    </timestep>
    <timestep time="63.00">
        <vehicle id="EV1" eclass="Energy/default" CO2="0.00" CO="0.00" HC="0.00" NOx="0.00" PMx="0.00" fuel="0.00" electricity="3.70" noise="64.84" route="trip" type="electricvehicle" waiting="0.00" lane="gneE12_0" pos="174.48" speed="14.46" angle="90.00" x="428.48" y="-4.80"/>
    </timestep>
    <timestep time="64.00">
        <vehicle id="EV1" eclass="Energy/default" CO2="0.00" CO="0.00" HC="0.00" NOx="0.00" PMx="0.00" fuel="0.00" electricity="8.95" noise="65.15" route="trip" type="electricvehicle" waiting="0.00" lane="gneE12_0" pos="189.00" speed="14.52" angle="90.00" x="443.00" y="-4.80"/>
    </timestep>
    <timestep time="65.00">
        <vehicle id="EV1" eclass="Energy/default" CO2="0.00" CO="0.00" HC="0.00" NOx="0.00" PMx="0.00" fuel="0.00" electricity="9.02" noise="65.19" route="trip" type="electricvehicle" waiting="0.00" lane="gneE12_0" pos="203.58" speed="14.58" angle="90.00" x="457.58" y="-4.80"/>
    </timestep>
    <timestep time="66.00">
        <vehicle id="EV1" eclass="Energy/default" CO2="0.00" CO="0.00" HC="0.00" NOx="0.00" PMx="0.00" fuel="0.00" electricity="7.98" noise="65.17" route="trip" type="electricvehicle" waiting="0.00" lane="gneE12_0" pos="218.20" speed="14.62" angle="90.00" x="472.20" y="-4.80"/>
    </timestep>
    <timestep time="67.00">
        <vehicle id="EV1" eclass="Energy/default" CO2="0.00" CO="0.00" HC="0.00" NOx="0.00" PMx="0.00" fuel="0.00" electricity="-37.63" noise="62.17" route="trip" type="electricvehicle" waiting="0.00" lane="gneE12_0" pos="231.63" speed="13.42" angle="90.00" x="485.63" y="-4.80"/>
    </timestep>
    <timestep time="68.00">
        <vehicle id="EV1" eclass="Energy/default" CO2="0.00" CO="0.00" HC="0.00" NOx="0.00" PMx="0.00" fuel="0.00" electricity="-118.95" noise="55.87" route="trip" type="electricvehicle" waiting="0.00" lane="gneE12_0" pos="240.74" speed="9.11" angle="90.00" x="494.74" y="-4.80"/>
    </timestep>
    <timestep time="69.00">
        <vehicle id="EV1" eclass="Energy/default" CO2="0.00" CO="0.00" HC="0.00" NOx="0.00" PMx="0.00" fuel="0.00" electricity="-73.74" noise="48.06" route="trip" type="electricvehicle" waiting="0.00" lane=":p5_2_0" pos="3.48" speed="4.75" angle="84.33" x="499.45" y="-4.31"/>
    </timestep>
    <timestep time="70.00">
        <vehicle id="EV1" eclass="Energy/default" CO2="0.00" CO="0.00" HC="0.00" NOx="0.00" PMx="0.00" fuel="0.00" electricity="16.46" noise="61.06" route="trip" type="electricvehicle" waiting="0.00" lane=":p5_4_0" pos="4.79" speed="5.37" angle="49.43" x="503.50" y="-1.10"/>
    </timestep>
    <timestep time="71.00">
        <vehicle id="EV1" eclass="Energy/default" CO2="0.00" CO="0.00" HC="0.00" NOx="0.00" PMx="0.00" fuel="0.00" electricity="20.52" noise="61.66" route="trip" type="electricvehicle" waiting="0.00" lane="gneE8_0" pos="0.70" speed="6.04" angle="354.83" x="503.80" y="4.70"/>
    </timestep>
    <timestep time="72.00">
        <vehicle id="EV1" eclass="Energy/default" CO2="0.00" CO="0.00" HC="0.00" NOx="0.00" PMx="0.00" fuel="0.00" electricity="15.15" noise="61.61" route="trip" type="electricvehicle" waiting="0.00" lane="gneE8_1" pos="7.32" speed="6.62" angle="355.08" x="502.80" y="11.32"/>
    </timestep>
    <timestep time="73.00">
        <vehicle id="EV1" eclass="Energy/default" CO2="0.00" CO="0.00" HC="0.00" NOx="0.00" PMx="0.00" fuel="0.00" electricity="16.48" noise="62.26" route="trip" type="electricvehicle" waiting="0.00" lane="gneE8_1" pos="14.60" speed="7.28" angle="355.34" x="501.80" y="18.60"/>
    </timestep>
    <timestep time="74.00">
        <vehicle id="EV1" eclass="Energy/default" CO2="0.00" CO="0.00" HC="0.00" NOx="0.00" PMx="0.00" fuel="0.00" electricity="15.33" noise="62.16" route="trip" type="electricvehicle" waiting="0.00" lane="gneE8_1" pos="22.42" speed="7.82" angle="359.11" x="501.60" y="26.42"/>
    </timestep>
    <timestep time="75.00">
        <vehicle id="EV1" eclass="Energy/default" CO2="0.00" CO="0.00" HC="0.00" NOx="0.00" PMx="0.00" fuel="0.00" electricity="21.09" noise="63.25" route="trip" type="electricvehicle" waiting="0.00" lane="gneE8_1" pos="30.96" speed="8.54" angle="3.38" x="502.40" y="34.96"/>
    </timestep>
    <timestep time="76.00">
        <vehicle id="EV1" eclass="Energy/default" CO2="0.00" CO="0.00" HC="0.00" NOx="0.00" PMx="0.00" fuel="0.00" electricity="25.15" noise="63.99" route="trip" type="electricvehicle" waiting="0.00" lane="gneE8_0" pos="40.30" speed="9.33" angle="3.99" x="503.40" y="44.30"/>
    </timestep>
    <timestep time="77.00">
        <vehicle id="EV1" eclass="Energy/default" CO2="0.00" CO="0.00" HC="0.00" NOx="0.00" PMx="0.00" fuel="0.00" electricity="25.18" noise="64.16" route="trip" type="electricvehicle" waiting="0.00" lane="gneE8_0" pos="50.35" speed="10.05" angle="3.80" x="504.40" y="54.35"/>
    </timestep>
    <timestep time="78.00">
        <vehicle id="EV1" eclass="Energy/default" CO2="0.00" CO="0.00" HC="0.00" NOx="0.00" PMx="0.00" fuel="0.00" electricity="16.75" noise="63.36" route="trip" type="electricvehicle" waiting="0.00" lane="gneE8_0" pos="60.81" speed="10.46" angle="1.48" x="504.80" y="64.81"/>
    </timestep>
    <timestep time="79.00">
        <vehicle id="EV1" eclass="Energy/default" CO2="0.00" CO="0.00" HC="0.00" NOx="0.00" PMx="0.00" fuel="0.00" electricity="18.15" noise="63.70" route="trip" type="electricvehicle" waiting="0.00" lane="gneE8_0" pos="71.70" speed="10.89" angle="0.00" x="504.80" y="75.70"/>
    </timestep>
    <timestep time="80.00">
        <vehicle id="EV1" eclass="Energy/default" CO2="0.00" CO="0.00" HC="0.00" NOx="0.00" PMx="0.00" fuel="0.00" electricity="31.08" noise="65.29" route="trip" type="electricvehicle" waiting="0.00" lane="gneE8_0" pos="83.35" speed="11.65" angle="0.00" x="504.80" y="87.35"/>
    </timestep>
    <timestep time="81.00">
        <vehicle id="EV1" eclass="Energy/default" CO2="0.00" CO="0.00" HC="0.00" NOx="0.00" PMx="0.00" fuel="0.00" electricity="33.93" noise="65.82" route="trip" type="electricvehicle" waiting="0.00" lane="gneE8_0" pos="95.78" speed="12.44" angle="0.00" x="504.80" y="99.78"/>
    </timestep>
    <timestep time="82.00">
        <vehicle id="EV1" eclass="Energy/default" CO2="0.00" CO="0.00" HC="0.00" NOx="0.00" PMx="0.00" fuel="0.00" electricity="30.63" noise="65.78" route="trip" type="electricvehicle" waiting="0.00" lane="gneE8_0" pos="108.86" speed="13.08" angle="0.00" x="504.80" y="112.86"/>
    </timestep>
    <timestep time="83.00">
        <vehicle id="EV1" eclass="Energy/default" CO2="0.00" CO="0.00" HC="0.00" NOx="0.00" PMx="0.00" fuel="0.00" electricity="25.76" noise="65.63" route="trip" type="electricvehicle" waiting="0.00" lane="gneE8_0" pos="122.44" speed="13.57" angle="0.00" x="504.80" y="126.44"/>
    </timestep>
    <timestep time="84.00">
        <vehicle id="EV1" eclass="Energy/default" CO2="0.00" CO="0.00" HC="0.00" NOx="0.00" PMx="0.00" fuel="0.00" electricity="24.60" noise="65.77" route="trip" type="electricvehicle" waiting="0.00" lane="gneE8_0" pos="136.45" speed="14.01" angle="0.00" x="504.80" y="140.45"/>
    </timestep>
    <timestep time="85.00">
        <vehicle id="EV1" eclass="Energy/default" CO2="0.00" CO="0.00" HC="0.00" NOx="0.00" PMx="0.00" fuel="0.00" electricity="32.02" noise="66.55" route="trip" type="electricvehicle" waiting="0.00" lane="gneE8_0" pos="151.05" speed="14.60" angle="0.00" x="504.80" y="155.05"/>
    </timestep>
    <timestep time="86.00">
        <vehicle id="EV1" eclass="Energy/default" CO2="0.00" CO="0.00" HC="0.00" NOx="0.00" PMx="0.00" fuel="0.00" electricity="9.92" noise="65.30" route="trip" type="electricvehicle" waiting="0.00" lane="gneE8_0" pos="165.73" speed="14.68" angle="0.00" x="504.80" y="169.73"/>
    </timestep>
    <timestep time="87.00">
        <vehicle id="EV1" eclass="Energy/default" CO2="0.00" CO="0.00" HC="0.00" NOx="0.00" PMx="0.00" fuel="0.00" electricity="-4.77" noise="64.37" route="trip" type="electricvehicle" waiting="0.00" lane="gneE8_0" pos="180.14" speed="14.41" angle="0.00" x="504.80" y="184.14"/>
    </timestep>
    <timestep time="88.00">
        <vehicle id="EV1" eclass="Energy/default" CO2="0.00" CO="0.00" HC="0.00" NOx="0.00" PMx="0.00" fuel="0.00" electricity="10.87" noise="65.25" route="trip" type="electricvehicle" waiting="0.00" lane="gneE8_0" pos="194.66" speed="14.52" angle="0.00" x="504.80" y="198.66"/>
    </timestep>
    <timestep time="89.00">