<?xml version="1.0" encoding="UTF-8"?>

<!-- generated on 03/10/21 17:02:09 by Eclipse SUMO GUI Version 1.7.0
<configuration xmlns:xsi="http://www.w3.org/2001/XMLSchema-instance" xsi:noNamespaceSchemaLocation="http://sumo.dlr.de/xsd/sumoConfiguration.xsd">

    <input>
        <net-file value="data/EVGrid.net.xml"/>
        <route-files value="data/electricvehicles.rou.xml"/>
        <additional-files value="data/EVGrid_additionals.add.xml"/>
    </input>

    <output>
        <battery-output value="data/battery.out.xml"/>
        <battery-output.precision value="4"/>
        <chargingstations-output value="data/EVGrid_chargingstations.xml"/>
        <summary-output value="data/summary-overview.xml"/>
        <tripinfo-output value="tripinfo.xml"/>
    </output>

    <processing>
        <lateral-resolution value="1"/>
    </processing>

    <battery>
        <device.battery.probability value="1"/>
    </battery>

    <traci_server>
        <remote-port value="60277"/>
    </traci_server>

    <gui_only>
        <gui-settings-file value="data/gui-settings.cfg"/>
    </gui_only>

</configuration>
-->

<tripinfos xmlns:xsi="http://www.w3.org/2001/XMLSchema-instance" xsi:noNamespaceSchemaLocation="http://sumo.dlr.de/xsd/tripinfo_file.xsd">
    <tripinfo id="V48.0" depart="3.00" departLane="-gneE47_0" departPos="5.10" departPosLat="0.00" departSpeed="0.00" departDelay="3.00" arrival="29.00" arrivalLane="gneE78_0" arrivalPos="25.60" arrivalPosLat="0.00" arrivalSpeed="11.90" duration="26.00" routeLength="265.57" waitingTime="0.00" waitingCount="0" stopTime="0.00" timeLoss="5.97" rerouteNo="0" devices="tripinfo_V48.0 battery_V48.0" vType="DEFAULT_VEHTYPE" speedFactor="1.04" vaporized=""/>
    <tripinfo id="V74.0" depart="0.00" departLane="gneE48_0" departPos="5.10" departPosLat="0.00" departSpeed="0.00" departDelay="0.00" arrival="45.00" arrivalLane="-gneE59_0" arrivalPos="235.60" arrivalPosLat="0.00" arrivalSpeed="10.50" duration="45.00" routeLength="480.29" waitingTime="0.00" waitingCount="0" stopTime="0.00" timeLoss="7.01" rerouteNo="0" devices="tripinfo_V74.0 battery_V74.0" vType="DEFAULT_VEHTYPE" speedFactor="0.94" vaporized=""/>
    <tripinfo id="V22.0" depart="0.00" departLane="gneE59_0" departPos="5.10" departPosLat="0.00" departSpeed="0.00" departDelay="0.00" arrival="48.00" arrivalLane="gneE68_0" arrivalPos="235.60" arrivalPosLat="0.00" arrivalSpeed="12.53" duration="48.00" routeLength="480.50" waitingTime="0.00" waitingCount="0" stopTime="0.00" timeLoss="9.85" rerouteNo="0" devices="tripinfo_V22.0 battery_V22.0" vType="DEFAULT_VEHTYPE" speedFactor="0.93" vaporized=""/>
    <tripinfo id="V92.0" depart="0.00" departLane="gneE50_0" departPos="5.10" departPosLat="0.00" departSpeed="0.00" departDelay="0.00" arrival="50.00" arrivalLane="gneE71_0" arrivalPos="235.60" arrivalPosLat="0.00" arrivalSpeed="11.37" duration="50.00" routeLength="475.13" waitingTime="0.00" waitingCount="0" stopTime="0.00" timeLoss="7.15" rerouteNo="0" devices="tripinfo_V92.0 battery_V92.0" vType="DEFAULT_VEHTYPE" speedFactor="0.83" vaporized=""/>
    <tripinfo id="V30.0" depart="0.00" departLane="-gneE50_0" departPos="5.10" departPosLat="0.00" departSpeed="0.00" departDelay="0.00" arrival="58.00" arrivalLane="gneE69_0" arrivalPos="235.60" arrivalPosLat="0.00" arrivalSpeed="10.62" duration="58.00" routeLength="480.50" waitingTime="6.00" waitingCount="1" stopTime="0.00" timeLoss="16.10" rerouteNo="0" devices="tripinfo_V30.0 battery_V30.0" vType="DEFAULT_VEHTYPE" speedFactor="0.83" vaporized=""/>
    <tripinfo id="V41.0" depart="0.00" departLane="-gneE57_0" departPos="5.10" departPosLat="0.00" departSpeed="0.00" departDelay="0.00" arrival="58.00" arrivalLane="gneE59_0" arrivalPos="235.60" arrivalPosLat="0.00" arrivalSpeed="12.31" duration="58.00" routeLength="480.29" waitingTime="10.00" waitingCount="1" stopTime="0.00" timeLoss="21.07" rerouteNo="0" devices="tripinfo_V41.0 battery_V41.0" vType="DEFAULT_VEHTYPE" speedFactor="0.97" vaporized=""/>
    <tripinfo id="V23.0" depart="3.00" departLane="-gneE78_0" departPos="5.10" departPosLat="0.00" departSpeed="0.00" departDelay="3.00" arrival="59.00" arrivalLane="gneE48_0" arrivalPos="235.60" arrivalPosLat="0.00" arrivalSpeed="11.66" duration="56.00" routeLength="520.50" waitingTime="0.00" waitingCount="0" stopTime="0.00" timeLoss="11.85" rerouteNo="0" devices="tripinfo_V23.0 battery_V23.0" vType="DEFAULT_VEHTYPE" speedFactor="0.88" vaporized=""/>
    <tripinfo id="V58.0" depart="3.00" departLane="-gneE59_0" departPos="5.10" departPosLat="0.00" departSpeed="0.00" departDelay="3.00" arrival="59.00" arrivalLane="gneE84_0" arrivalPos="15.83" arrivalPosLat="0.00" arrivalSpeed="8.88" duration="56.00" routeLength="520.60" waitingTime="4.00" waitingCount="1" stopTime="0.00" timeLoss="16.44" rerouteNo="0" devices="tripinfo_V58.0 battery_V58.0" vType="DEFAULT_VEHTYPE" speedFactor="1.00" vaporized=""/>
    <tripinfo id="V20.0" depart="3.00" departLane="-gneE79_0" departPos="5.10" departPosLat="0.00" departSpeed="0.00" departDelay="3.00" arrival="71.00" arrivalLane="-gneE53_0" arrivalPos="239.60" arrivalPosLat="0.00" arrivalSpeed="15.34" duration="68.00" routeLength="721.08" waitingTime="0.00" waitingCount="0" stopTime="0.00" timeLoss="20.74" rerouteNo="0" devices="tripinfo_V20.0 battery_V20.0" vType="DEFAULT_VEHTYPE" speedFactor="1.12" vaporized=""/>
    <tripinfo id="V36.0" depart="3.00" departLane="-gneE66_0" departPos="5.10" departPosLat="0.00" departSpeed="0.00" departDelay="3.00" arrival="74.00" arrivalLane="-gneE63_0" arrivalPos="239.60" arrivalPosLat="0.00" arrivalSpeed="15.43" duration="71.00" routeLength="985.84" waitingTime="0.00" waitingCount="0" stopTime="0.00" timeLoss="9.62" rerouteNo="0" devices="tripinfo_V36.0 battery_V36.0" vType="DEFAULT_VEHTYPE" speedFactor="1.18" vaporized=""/>
    <tripinfo id="V39.0" depart="0.00" departLane="-gneE60_0" departPos="5.10" departPosLat="0.00" departSpeed="0.00" departDelay="0.00" arrival="75.00" arrivalLane="gneE83_0" arrivalPos="7.95" arrivalPosLat="0.00" arrivalSpeed="11.55" duration="75.00" routeLength="1011.47" waitingTime="0.00" waitingCount="0" stopTime="0.00" timeLoss="11.71" rerouteNo="0" devices="tripinfo_V39.0 battery_V39.0" vType="DEFAULT_VEHTYPE" speedFactor="1.17" vaporized=""/>
    <tripinfo id="V34.0" depart="3.00" departLane="gneE61_0" departPos="5.10" departPosLat="0.00" departSpeed="0.00" departDelay="3.00" arrival="81.00" arrivalLane="-gneE49_0" arrivalPos="235.60" arrivalPosLat="0.00" arrivalSpeed="10.13" duration="78.00" routeLength="979.13" waitingTime="0.00" waitingCount="0" stopTime="0.00" timeLoss="15.13" rerouteNo="0" devices="tripinfo_V34.0 battery_V34.0" vType="DEFAULT_VEHTYPE" speedFactor="1.13" vaporized=""/>
    <tripinfo id="V93.0" depart="0.00" departLane="gneE65_0" departPos="5.10" departPosLat="0.00" departSpeed="0.00" departDelay="0.00" arrival="86.00" arrivalLane="-gneE47_0" arrivalPos="232.55" arrivalPosLat="0.00" arrivalSpeed="11.98" duration="86.00" routeLength="973.63" waitingTime="0.00" waitingCount="0" stopTime="0.00" timeLoss="8.58" rerouteNo="0" devices="tripinfo_V93.0 battery_V93.0" vType="DEFAULT_VEHTYPE" speedFactor="0.92" vaporized=""/>
    <tripinfo id="V11.0" depart="0.00" departLane="gneE54_0" departPos="5.10" departPosLat="0.00" departSpeed="0.00" departDelay="0.00" arrival="89.00" arrivalLane="-gneE61_0" arrivalPos="239.60" arrivalPosLat="0.00" arrivalSpeed="8.28" duration="89.00" routeLength="984.08" waitingTime="7.00" waitingCount="1" stopTime="0.00" timeLoss="22.34" rerouteNo="0" devices="tripinfo_V11.0 battery_V11.0" vType="DEFAULT_VEHTYPE" speedFactor="1.08" vaporized=""/>
    <tripinfo id="V43.0" depart="3.00" departLane="-gneE70_0" departPos="5.10" departPosLat="0.00" departSpeed="0.00" departDelay="3.00" arrival="89.00" arrivalLane="-gneE65_0" arrivalPos="235.60" arrivalPosLat="0.00" arrivalSpeed="14.86" duration="86.00" routeLength="980.08" waitingTime="1.00" waitingCount="1" stopTime="0.00" timeLoss="20.92" rerouteNo="0" devices="tripinfo_V43.0 battery_V43.0" vType="DEFAULT_VEHTYPE" speedFactor="1.10" vaporized=""/>
    <tripinfo id="V69.0" depart="0.00" departLane="-gneE46_0" departPos="5.10" departPosLat="0.00" departSpeed="0.00" departDelay="0.00" arrival="90.00" arrivalLane="-gneE79_0" arrivalPos="200.78" arrivalPosLat="0.00" arrivalSpeed="11.34" duration="90.00" routeLength="931.11" waitingTime="0.00" waitingCount="0" stopTime="0.00" timeLoss="12.95" rerouteNo="0" devices="tripinfo_V69.0 battery_V69.0" vType="DEFAULT_VEHTYPE" speedFactor="0.91" vaporized=""/>
    <tripinfo id="V53.0" depart="3.00" departLane="-gneE48_0" departPos="5.10" departPosLat="0.00" departSpeed="0.00" departDelay="3.00" arrival="91.00" arrivalLane="-gneE66_0" arrivalPos="239.60" arrivalPosLat="0.00" arrivalSpeed="11.17" duration="88.00" routeLength="731.63" waitingTime="11.00" waitingCount="1" stopTime="0.00" timeLoss="24.11" rerouteNo="0" devices="tripinfo_V53.0 battery_V53.0" vType="DEFAULT_VEHTYPE" speedFactor="0.85" vaporized=""/>
    <tripinfo id="V18.0" depart="0.00" departLane="-gneE47_0" departPos="5.10" departPosLat="0.00" departSpeed="0.00" departDelay="0.00" arrival="95.00" arrivalLane="-gneE59_0" arrivalPos="235.60" arrivalPosLat="0.00" arrivalSpeed="13.98" duration="95.00" routeLength="1056.46" waitingTime="0.00" waitingCount="0" stopTime="0.00" timeLoss="20.27" rerouteNo="0" devices="tripinfo_V18.0 battery_V18.0" vType="DEFAULT_VEHTYPE" speedFactor="1.09" vaporized=""/>
    <tripinfo id="V46.0" depart="6.00" departLane="-gneE70_0" departPos="5.10" departPosLat="0.00" departSpeed="0.00" departDelay="6.00" arrival="95.00" arrivalLane="gneE62_0" arrivalPos="235.60" arrivalPosLat="0.00" arrivalSpeed="12.01" duration="89.00" routeLength="964.39" waitingTime="0.00" waitingCount="0" stopTime="0.00" timeLoss="13.66" rerouteNo="0" devices="tripinfo_V46.0 battery_V46.0" vType="DEFAULT_VEHTYPE" speedFactor="0.96" vaporized=""/>
    <tripinfo id="V59.0" depart="0.00" departLane="-gneE49_0" departPos="5.10" departPosLat="0.00" departSpeed="0.00" departDelay="0.00" arrival="95.00" arrivalLane="gneE51_0" arrivalPos="235.60" arrivalPosLat="0.00" arrivalSpeed="12.62" duration="95.00" routeLength="969.55" waitingTime="8.00" waitingCount="1" stopTime="0.00" timeLoss="22.22" rerouteNo="0" devices="tripinfo_V59.0 battery_V59.0" vType="DEFAULT_VEHTYPE" speedFactor="1.00" vaporized=""/>
    <tripinfo id="V40.0" depart="3.00" departLane="-gneE50_0" departPos="5.10" departPosLat="0.00" departSpeed="0.00" departDelay="3.00" arrival="98.00" arrivalLane="-gneE65_0" arrivalPos="235.60" arrivalPosLat="0.00" arrivalSpeed="13.84" duration="95.00" routeLength="974.71" waitingTime="5.00" waitingCount="1" stopTime="0.00" timeLoss="23.52" rerouteNo="0" devices="tripinfo_V40.0 battery_V40.0" vType="DEFAULT_VEHTYPE" speedFactor="1.02" vaporized=""/>
    <tripinfo id="V49.0" depart="0.00" departLane="-gneE59_0" departPos="5.10" departPosLat="0.00" departSpeed="0.00" departDelay="0.00" arrival="100.00" arrivalLane="gneE69_0" arrivalPos="235.60" arrivalPosLat="0.00" arrivalSpeed="13.76" duration="100.00" routeLength="969.76" waitingTime="15.00" waitingCount="1" stopTime="0.00" timeLoss="30.79" rerouteNo="0" devices="tripinfo_V49.0 battery_V49.0" vType="DEFAULT_VEHTYPE" speedFactor="1.04" vaporized=""/>
    <tripinfo id="V65.0" depart="0.00" departLane="-gneE51_0" departPos="5.10" departPosLat="0.00" departSpeed="0.00" departDelay="0.00" arrival="100.00" arrivalLane="-gneE60_0" arrivalPos="239.60" arrivalPosLat="0.00" arrivalSpeed="13.06" duration="100.00" routeLength="981.42" waitingTime="6.00" waitingCount="2" stopTime="0.00" timeLoss="28.43" rerouteNo="0" devices="tripinfo_V65.0 battery_V65.0" vType="DEFAULT_VEHTYPE" speedFactor="1.02" vaporized=""/>
    <tripinfo id="V72.0" depart="0.00" departLane="gneE62_0" departPos="5.10" departPosLat="0.00" departSpeed="0.00" departDelay="0.00" arrival="100.00" arrivalLane="-gneE67_0" arrivalPos="239.60" arrivalPosLat="0.00" arrivalSpeed="13.67" duration="100.00" routeLength="1228.92" waitingTime="0.00" waitingCount="0" stopTime="0.00" timeLoss="10.95" rerouteNo="0" devices="tripinfo_V72.0 battery_V72.0" vType="DEFAULT_VEHTYPE" speedFactor="1.02" vaporized=""/>
    <tripinfo id="V57.0" depart="3.00" departLane="gneE59_0" departPos="5.10" departPosLat="0.00" departSpeed="0.00" departDelay="3.00" arrival="101.00" arrivalLane="gneE71_0" arrivalPos="235.60" arrivalPosLat="0.00" arrivalSpeed="8.16" duration="98.00" routeLength="974.71" waitingTime="2.00" waitingCount="1" stopTime="0.00" timeLoss="31.95" rerouteNo="0" devices="tripinfo_V57.0 battery_V57.0" vType="DEFAULT_VEHTYPE" speedFactor="1.10" vaporized=""/>
    <tripinfo id="V99.0" depart="6.00" departLane="-gneE63_0" departPos="5.10" departPosLat="0.00" departSpeed="0.00" departDelay="6.00" arrival="106.00" arrivalLane="gneE78_0" arrivalPos="25.60" arrivalPosLat="0.00" arrivalSpeed="14.26" duration="100.00" routeLength="1263.99" waitingTime="0.00" waitingCount="0" stopTime="0.00" timeLoss="14.75" rerouteNo="0" devices="tripinfo_V99.0 battery_V99.0" vType="DEFAULT_VEHTYPE" speedFactor="1.10" vaporized=""/>
    <tripinfo id="V68.0" depart="6.00" departLane="-gneE78_0" departPos="5.10" departPosLat="0.00" departSpeed="0.00" departDelay="6.00" arrival="107.00" arrivalLane="gneE50_0" arrivalPos="235.60" arrivalPosLat="0.00" arrivalSpeed="11.98" duration="101.00" routeLength="1020.29" waitingTime="0.00" waitingCount="0" stopTime="0.00" timeLoss="14.97" rerouteNo="0" devices="tripinfo_V68.0 battery_V68.0" vType="DEFAULT_VEHTYPE" speedFactor="0.88" vaporized=""/>
    <tripinfo id="V78.0" depart="6.00" departLane="-gneE59_0" departPos="5.10" departPosLat="0.00" departSpeed="0.00" departDelay="6.00" arrival="107.00" arrivalLane="-gneE60_0" arrivalPos="239.60" arrivalPosLat="0.00" arrivalSpeed="13.10" duration="101.00" routeLength="1226.26" waitingTime="0.00" waitingCount="0" stopTime="0.00" timeLoss="12.74" rerouteNo="0" devices="tripinfo_V78.0 battery_V78.0" vType="DEFAULT_VEHTYPE" speedFactor="1.03" vaporized=""/>
    <tripinfo id="V73.0" depart="3.00" departLane="-gneE60_0" departPos="5.10" departPosLat="0.00" departSpeed="0.00" departDelay="3.00" arrival="108.00" arrivalLane="gneE70_0" arrivalPos="235.60" arrivalPosLat="0.00" arrivalSpeed="12.50" duration="105.00" routeLength="984.08" waitingTime="8.00" waitingCount="2" stopTime="0.00" timeLoss="30.91" rerouteNo="0" devices="tripinfo_V73.0 battery_V73.0" vType="DEFAULT_VEHTYPE" speedFactor="0.97" vaporized=""/>
    <tripinfo id="V26.0" depart="0.00" departLane="-gneE66_0" departPos="5.10" departPosLat="0.00" departSpeed="0.00" departDelay="0.00" arrival="109.00" arrivalLane="gneE57_0" arrivalPos="235.60" arrivalPosLat="0.00" arrivalSpeed="14.97" duration="109.00" routeLength="978.92" waitingTime="27.00" waitingCount="1" stopTime="0.00" timeLoss="46.72" rerouteNo="0" devices="tripinfo_V26.0 battery_V26.0" vType="DEFAULT_VEHTYPE" speedFactor="1.16" vaporized=""/>
    <tripinfo id="V50.0" depart="0.00" departLane="gneE52_0" departPos="5.10" departPosLat="0.00" departSpeed="0.00" departDelay="0.00" arrival="111.00" arrivalLane="-gneE49_0" arrivalPos="235.60" arrivalPosLat="0.00" arrivalSpeed="13.42" duration="111.00" routeLength="1219.34" waitingTime="0.00" waitingCount="0" stopTime="0.00" timeLoss="19.65" rerouteNo="0" devices="tripinfo_V50.0 battery_V50.0" vType="DEFAULT_VEHTYPE" speedFactor="1.00" vaporized=""/>
    <tripinfo id="V3.0" depart="0.00" departLane="-gneE70_0" departPos="5.10" departPosLat="0.00" departSpeed="0.00" departDelay="0.00" arrival="112.00" arrivalLane="-gneE52_0" arrivalPos="235.60" arrivalPosLat="0.00" arrivalSpeed="11.84" duration="112.00" routeLength="1219.76" waitingTime="0.00" waitingCount="0" stopTime="0.00" timeLoss="11.03" rerouteNo="0" devices="tripinfo_V3.0 battery_V3.0" vType="DEFAULT_VEHTYPE" speedFactor="0.89" vaporized=""/>
    <tripinfo id="V0.0" depart="0.00" departLane="-gneE53_0" departPos="5.10" departPosLat="0.00" departSpeed="0.00" departDelay="0.00" arrival="113.00" arrivalLane="-gneE65_0" arrivalPos="235.60" arrivalPosLat="0.00" arrivalSpeed="13.54" duration="113.00" routeLength="1228.92" waitingTime="10.00" waitingCount="1" stopTime="0.00" timeLoss="28.07" rerouteNo="0" devices="tripinfo_V0.0 battery_V0.0" vType="DEFAULT_VEHTYPE" speedFactor="1.06" vaporized=""/>
    <tripinfo id="V14.0" depart="0.00" departLane="gneE69_0" departPos="5.10" departPosLat="0.00" departSpeed="0.00" departDelay="0.00" arrival="113.00" arrivalLane="gneE85_0" arrivalPos="6.93" arrivalPosLat="0.00" arrivalSpeed="7.69" duration="113.00" routeLength="1260.82" waitingTime="2.00" waitingCount="1" stopTime="0.00" timeLoss="24.24" rerouteNo="0" devices="tripinfo_V14.0 battery_V14.0" vType="DEFAULT_VEHTYPE" speedFactor="1.05" vaporized=""/>
    <tripinfo id="V19.0" depart="0.00" departLane="-gneE79_0" departPos="5.10" departPosLat="0.00" departSpeed="0.00" departDelay="0.00" arrival="114.00" arrivalLane="gneE79_0" arrivalPos="200.78" arrivalPosLat="0.00" arrivalSpeed="10.91" duration="114.00" routeLength="487.41" waitingTime="30.00" waitingCount="3" stopTime="0.00" timeLoss="78.19" rerouteNo="0" devices="tripinfo_V19.0 battery_V19.0" vType="DEFAULT_VEHTYPE" speedFactor="1.03" vaporized=""/>
    <tripinfo id="V37.0" depart="3.00" departLane="gneE60_0" departPos="5.10" departPosLat="0.00" departSpeed="0.00" departDelay="3.00" arrival="117.00" arrivalLane="gneE71_0" arrivalPos="235.60" arrivalPosLat="0.00" arrivalSpeed="14.82" duration="114.00" routeLength="1460.57" waitingTime="0.00" waitingCount="0" stopTime="0.00" timeLoss="20.20" rerouteNo="0" devices="tripinfo_V37.0 battery_V37.0" vType="DEFAULT_VEHTYPE" speedFactor="1.15" vaporized=""/>
    <tripinfo id="V86.0" depart="7.00" departLane="gneE64_0" departPos="5.10" departPosLat="0.00" departSpeed="0.00" departDelay="7.00" arrival="118.00" arrivalLane="-gneE49_0" arrivalPos="235.60" arrivalPosLat="0.00" arrivalSpeed="13.27" duration="111.00" routeLength="728.92" waitingTime="25.00" waitingCount="1" stopTime="0.00" timeLoss="54.83" rerouteNo="0" devices="tripinfo_V86.0 battery_V86.0" vType="DEFAULT_VEHTYPE" speedFactor="0.98" vaporized=""/>
    <tripinfo id="V94.0" depart="3.00" departLane="-gneE63_0" departPos="5.10" departPosLat="0.00" departSpeed="0.00" departDelay="3.00" arrival="118.00" arrivalLane="-gneE52_0" arrivalPos="235.60" arrivalPosLat="0.00" arrivalSpeed="14.94" duration="115.00" routeLength="1473.55" waitingTime="0.00" waitingCount="0" stopTime="0.00" timeLoss="15.79" rerouteNo="0" devices="tripinfo_V94.0 battery_V94.0" vType="DEFAULT_VEHTYPE" speedFactor="1.09" vaporized=""/>
    <tripinfo id="V5.0" depart="6.00" departLane="-gneE66_0" departPos="5.10" departPosLat="0.00" departSpeed="0.00" departDelay="6.00" arrival="119.00" arrivalLane="-gneE79_0" arrivalPos="200.78" arrivalPosLat="0.00" arrivalSpeed="14.99" duration="113.00" routeLength="949.26" waitingTime="29.00" waitingCount="2" stopTime="0.00" timeLoss="47.40" rerouteNo="0" devices="tripinfo_V5.0 battery_V5.0" vType="DEFAULT_VEHTYPE" speedFactor="1.09" vaporized=""/>
    <tripinfo id="V76.0" depart="6.00" departLane="gneE69_0" departPos="5.10" departPosLat="0.00" departSpeed="0.00" departDelay="6.00" arrival="119.00" arrivalLane="gneE83_0" arrivalPos="7.95" arrivalPosLat="0.00" arrivalSpeed="8.62" duration="113.00" routeLength="1235.58" waitingTime="0.00" waitingCount="0" stopTime="0.00" timeLoss="17.52" rerouteNo="0" devices="tripinfo_V76.0 battery_V76.0" vType="DEFAULT_VEHTYPE" speedFactor="0.96" vaporized=""/>
    <tripinfo id="V21.0" depart="0.00" departLane="gneE79_0" departPos="5.10" departPosLat="0.00" departSpeed="0.00" departDelay="0.00" arrival="120.00" arrivalLane="gneE47_0" arrivalPos="232.55" arrivalPosLat="0.00" arrivalSpeed="13.12" duration="120.00" routeLength="1196.59" waitingTime="15.00" waitingCount="1" stopTime="0.00" timeLoss="29.77" rerouteNo="0" devices="tripinfo_V21.0 battery_V21.0" vType="DEFAULT_VEHTYPE" speedFactor="0.99" vaporized=""/>
    <tripinfo id="V70.0" depart="6.00" departLane="-gneE68_0" departPos="5.10" departPosLat="0.00" departSpeed="0.00" departDelay="6.00" arrival="121.00" arrivalLane="gneE48_0" arrivalPos="235.60" arrivalPosLat="0.00" arrivalSpeed="13.26" duration="115.00" routeLength="1229.07" waitingTime="2.00" waitingCount="1" stopTime="0.00" timeLoss="27.36" rerouteNo="0" devices="tripinfo_V70.0 battery_V70.0" vType="DEFAULT_VEHTYPE" speedFactor="1.04" vaporized=""/>
    <tripinfo id="V77.0" depart="6.00" departLane="-gneE50_0" departPos="5.10" departPosLat="0.00" departSpeed="0.00" departDelay="6.00" arrival="121.00" arrivalLane="gneE64_0" arrivalPos="239.60" arrivalPosLat="0.00" arrivalSpeed="12.70" duration="115.00" routeLength="971.10" waitingTime="16.00" waitingCount="2" stopTime="0.00" timeLoss="41.29" rerouteNo="0" devices="tripinfo_V77.0 battery_V77.0" vType="DEFAULT_VEHTYPE" speedFactor="0.98" vaporized=""/>
    <tripinfo id="V35.0" depart="3.00" departLane="gneE54_0" departPos="5.10" departPosLat="0.00" departSpeed="0.00" departDelay="3.00" arrival="122.00" arrivalLane="gneE61_0" arrivalPos="239.60" arrivalPosLat="0.00" arrivalSpeed="11.67" duration="119.00" routeLength="1220.89" waitingTime="2.00" waitingCount="1" stopTime="0.00" timeLoss="21.24" rerouteNo="0" devices="tripinfo_V35.0 battery_V35.0" vType="DEFAULT_VEHTYPE" speedFactor="0.93" vaporized=""/>
    <tripinfo id="V88.0" depart="3.00" departLane="gneE78_0" departPos="5.10" departPosLat="0.00" departSpeed="0.00" departDelay="3.00" arrival="122.00" arrivalLane="gneE60_0" arrivalPos="239.60" arrivalPosLat="0.00" arrivalSpeed="14.12" duration="119.00" routeLength="977.69" waitingTime="26.00" waitingCount="3" stopTime="0.00" timeLoss="49.81" rerouteNo="0" devices="tripinfo_V88.0 battery_V88.0" vType="DEFAULT_VEHTYPE" speedFactor="1.04" vaporized=""/>
    <tripinfo id="V15.0" depart="3.00" departLane="-gneE68_0" departPos="5.10" departPosLat="0.00" departSpeed="0.00" departDelay="3.00" arrival="123.00" arrivalLane="-gneE53_0" arrivalPos="239.60" arrivalPosLat="0.00" arrivalSpeed="11.86" duration="120.00" routeLength="1221.09" waitingTime="0.00" waitingCount="0" stopTime="0.00" timeLoss="18.36" rerouteNo="0" devices="tripinfo_V15.0 battery_V15.0" vType="DEFAULT_VEHTYPE" speedFactor="0.89" vaporized=""/>
    <tripinfo id="V27.0" depart="0.00" departLane="gneE61_0" departPos="5.10" departPosLat="0.00" departSpeed="0.00" departDelay="0.00" arrival="124.00" arrivalLane="-gneE63_0" arrivalPos="239.60" arrivalPosLat="0.00" arrivalSpeed="14.04" duration="124.00" routeLength="1480.05" waitingTime="0.00" waitingCount="0" stopTime="0.00" timeLoss="16.11" rerouteNo="0" devices="tripinfo_V27.0 battery_V27.0" vType="DEFAULT_VEHTYPE" speedFactor="1.02" vaporized=""/>
    <tripinfo id="V51.0" depart="0.00" departLane="-gneE67_0" departPos="5.10" departPosLat="0.00" departSpeed="0.00" departDelay="0.00" arrival="124.00" arrivalLane="-gneE69_0" arrivalPos="235.60" arrivalPosLat="0.00" arrivalSpeed="4.60" duration="124.00" routeLength="981.63" waitingTime="12.00" waitingCount="3" stopTime="0.00" timeLoss="44.35" rerouteNo="0" devices="tripinfo_V51.0 battery_V51.0" vType="DEFAULT_VEHTYPE" speedFactor="0.90" vaporized=""/>
    <tripinfo id="V85.0" depart="4.00" departLane="gneE83_0" departPos="5.10" departPosLat="0.00" departSpeed="0.00" departDelay="4.00" arrival="125.00" arrivalLane="gneE57_0" arrivalPos="235.60" arrivalPosLat="0.00" arrivalSpeed="14.76" duration="121.00" routeLength="486.34" waitingTime="42.00" waitingCount="4" stopTime="0.00" timeLoss="90.02" rerouteNo="0" devices="tripinfo_V85.0 battery_V85.0" vType="DEFAULT_VEHTYPE" speedFactor="1.15" vaporized=""/>
    <tripinfo id="V13.0" depart="0.00" departLane="-gneE68_0" departPos="5.10" departPosLat="0.00" departSpeed="0.00" departDelay="0.00" arrival="126.00" arrivalLane="-gneE49_0" arrivalPos="235.60" arrivalPosLat="0.00" arrivalSpeed="10.79" duration="126.00" routeLength="1214.39" waitingTime="0.00" waitingCount="0" stopTime="0.00" timeLoss="17.40" rerouteNo="0" devices="tripinfo_V13.0 battery_V13.0" vType="DEFAULT_VEHTYPE" speedFactor="0.83" vaporized=""/>
    <tripinfo id="V60.0" depart="0.00" departLane="-gneE64_0" departPos="5.10" departPosLat="0.00" departSpeed="0.00" departDelay="0.00" arrival="126.00" arrivalLane="gneE59_0" arrivalPos="235.60" arrivalPosLat="0.00" arrivalSpeed="9.70" duration="126.00" routeLength="1481.42" waitingTime="7.00" waitingCount="1" stopTime="0.00" timeLoss="30.64" rerouteNo="0" devices="tripinfo_V60.0 battery_V60.0" vType="DEFAULT_VEHTYPE" speedFactor="1.14" vaporized=""/>
    <tripinfo id="V10.0" depart="0.00" departLane="-gneE71_0" departPos="5.10" departPosLat="0.00" departSpeed="0.00" departDelay="0.00" arrival="128.00" arrivalLane="-gneE53_0" arrivalPos="239.60" arrivalPosLat="0.00" arrivalSpeed="13.45" duration="128.00" routeLength="1221.08" waitingTime="13.00" waitingCount="1" stopTime="0.00" timeLoss="38.86" rerouteNo="0" devices="tripinfo_V10.0 battery_V10.0" vType="DEFAULT_VEHTYPE" speedFactor="1.01" vaporized=""/>
    <tripinfo id="V28.0" depart="0.00" departLane="-gneE69_0" departPos="5.10" departPosLat="0.00" departSpeed="0.00" departDelay="0.00" arrival="128.00" arrivalLane="-gneE46_0" arrivalPos="239.59" arrivalPosLat="0.00" arrivalSpeed="13.34" duration="128.00" routeLength="1228.91" waitingTime="25.00" waitingCount="1" stopTime="0.00" timeLoss="38.82" rerouteNo="0" devices="tripinfo_V28.0 battery_V28.0" vType="DEFAULT_VEHTYPE" speedFactor="1.01" vaporized=""/>
    <tripinfo id="V56.0" depart="3.00" departLane="-gneE54_0" departPos="5.10" departPosLat="0.00" departSpeed="0.00" departDelay="3.00" arrival="131.00" arrivalLane="-gneE53_0" arrivalPos="239.60" arrivalPosLat="0.00" arrivalSpeed="13.38" duration="128.00" routeLength="1310.96" waitingTime="0.00" waitingCount="0" stopTime="0.00" timeLoss="31.57" rerouteNo="0" devices="tripinfo_V56.0 battery_V56.0" vType="DEFAULT_VEHTYPE" speedFactor="1.02" vaporized=""/>
    <tripinfo id="V17.0" depart="0.00" departLane="-gneE78_0" departPos="5.10" departPosLat="0.00" departSpeed="0.00" departDelay="0.00" arrival="133.00" arrivalLane="gneE57_0" arrivalPos="235.60" arrivalPosLat="0.00" arrivalSpeed="11.76" duration="133.00" routeLength="528.63" waitingTime="37.00" waitingCount="4" stopTime="0.00" timeLoss="85.49" rerouteNo="0" devices="tripinfo_V17.0 battery_V17.0" vType="DEFAULT_VEHTYPE" speedFactor="0.86" vaporized=""/>
    <tripinfo id="V71.0" depart="6.00" departLane="gneE61_0" departPos="5.10" departPosLat="0.00" departSpeed="0.00" departDelay="6.00" arrival="133.00" arrivalLane="-gneE63_0" arrivalPos="239.60" arrivalPosLat="0.00" arrivalSpeed="6.21" duration="127.00" routeLength="1480.05" waitingTime="0.00" waitingCount="0" stopTime="0.00" timeLoss="19.90" rerouteNo="0" devices="tripinfo_V71.0 battery_V71.0" vType="DEFAULT_VEHTYPE" speedFactor="1.02" vaporized=""/>
    <tripinfo id="V84.0" depart="6.00" departLane="-gneE47_0" departPos="5.10" departPosLat="0.00" departSpeed="0.00" departDelay="6.00" arrival="133.00" arrivalLane="-gneE57_0" arrivalPos="235.60" arrivalPosLat="0.00" arrivalSpeed="13.29" duration="127.00" routeLength="1465.93" waitingTime="0.00" waitingCount="0" stopTime="0.00" timeLoss="15.44" rerouteNo="0" devices="tripinfo_V84.0 battery_V84.0" vType="DEFAULT_VEHTYPE" speedFactor="0.97" vaporized=""/>
    <tripinfo id="V66.0" depart="9.00" departLane="-gneE66_0" departPos="5.10" departPosLat="0.00" departSpeed="0.00" departDelay="9.00" arrival="134.00" arrivalLane="gneE84_0" arrivalPos="15.83" arrivalPosLat="0.00" arrivalSpeed="8.89" duration="125.00" routeLength="1009.87" waitingTime="23.00" waitingCount="2" stopTime="0.00" timeLoss="47.28" rerouteNo="0" devices="tripinfo_V66.0 battery_V66.0" vType="DEFAULT_VEHTYPE" speedFactor="0.99" vaporized=""/>
    <tripinfo id="V79.0" depart="0.00" departLane="-gneE63_0" departPos="5.10" departPosLat="0.00" departSpeed="0.00" departDelay="0.00" arrival="134.00" arrivalLane="gneE61_0" arrivalPos="239.60" arrivalPosLat="0.00" arrivalSpeed="12.86" duration="134.00" routeLength="1469.73" waitingTime="2.00" waitingCount="1" stopTime="0.00" timeLoss="22.81" rerouteNo="0" devices="tripinfo_V79.0 battery_V79.0" vType="DEFAULT_VEHTYPE" speedFactor="0.98" vaporized=""/>
    <tripinfo id="V9.0" depart="6.00" departLane="gneE78_0" departPos="5.10" departPosLat="0.00" departSpeed="0.00" departDelay="6.00" arrival="134.00" arrivalLane="-gneE52_0" arrivalPos="235.60" arrivalPosLat="0.00" arrivalSpeed="13.98" duration="128.00" routeLength="723.69" waitingTime="47.00" waitingCount="3" stopTime="0.00" timeLoss="74.84" rerouteNo="0" devices="tripinfo_V9.0 battery_V9.0" vType="DEFAULT_VEHTYPE" speedFactor="1.02" vaporized=""/>
    <tripinfo id="V29.0" depart="0.00" departLane="gneE47_0" departPos="5.10" departPosLat="0.00" departSpeed="0.00" departDelay="0.00" arrival="138.00" arrivalLane="gneE79_0" arrivalPos="200.78" arrivalPosLat="0.00" arrivalSpeed="5.33" duration="138.00" routeLength="1233.73" waitingTime="17.00" waitingCount="2" stopTime="0.00" timeLoss="42.49" rerouteNo="0" devices="tripinfo_V29.0 battery_V29.0" vType="DEFAULT_VEHTYPE" speedFactor="0.98" vaporized=""/>
    <tripinfo id="V44.0" depart="3.00" departLane="gneE67_0" departPos="5.10" departPosLat="0.00" departSpeed="0.00" departDelay="3.00" arrival="138.00" arrivalLane="-gneE71_0" arrivalPos="235.60" arrivalPosLat="0.00" arrivalSpeed="11.82" duration="135.00" routeLength="1478.71" waitingTime="0.00" waitingCount="0" stopTime="0.00" timeLoss="13.62" rerouteNo="0" devices="tripinfo_V44.0 battery_V44.0" vType="DEFAULT_VEHTYPE" speedFactor="0.90" vaporized=""/>