<?xml version="1.0" encoding="UTF-8"?>

<!-- generated on 03/25/21 14:45:30 by Eclipse SUMO sumo Version v1_8_0+1742-ceeb7fe3f3
<configuration xmlns:xsi="http://www.w3.org/2001/XMLSchema-instance" xsi:noNamespaceSchemaLocation="http://sumo.dlr.de/xsd/sumoConfiguration.xsd">

    <input>
        <net-file value="data/EVGrid.net.xml"/>
        <route-files value="data/electricvehicles.rou.xml"/>
        <additional-files value="data/EVGrid_additionals.add.xml"/>
    </input>

    <output>
        <battery-output value="data/battery.out.xml"/>
        <battery-output.precision value="4"/>
        <chargingstations-output value="data/EVGrid_chargingstations.xml"/>
        <summary-output value="data/summary-overview.xml"/>
        <tripinfo-output value="tripinfo.xml"/>
    </output>

    <processing>
        <lateral-resolution value="1"/>
    </processing>

    <battery>
        <device.battery.probability value="1"/>
    </battery>

    <traci_server>
        <remote-port value="56040"/>
    </traci_server>

    <gui_only>
        <gui-settings-file value="data/gui-settings.cfg"/>
    </gui_only>

</configuration>
-->

<tripinfos xmlns:xsi="http://www.w3.org/2001/XMLSchema-instance" xsi:noNamespaceSchemaLocation="http://sumo.dlr.de/xsd/tripinfo_file.xsd">
    <tripinfo id="V11.0" depart="0.00" departLane="gneE48_0" departPos="5.10" departPosLat="0.00" departSpeed="0.00" departDelay="0.00" arrival="20.00" arrivalLane="gneE48_0" arrivalPos="235.60" arrivalPosLat="0.00" arrivalSpeed="15.01" duration="20.00" routeLength="230.50" waitingTime="0.00" waitingCount="0" stopTime="0.00" timeLoss="4.54" rerouteNo="0" devices="tripinfo_V11.0 battery_V11.0" vType="DEFAULT_VEHTYPE" speedFactor="1.12" vaporized=""/>
    <tripinfo id="V105.0" depart="0.00" departLane="gneE65_0" departPos="5.10" departPosLat="0.00" departSpeed="0.00" departDelay="0.00" arrival="21.00" arrivalLane="gneE65_0" arrivalPos="235.60" arrivalPosLat="0.00" arrivalSpeed="11.88" duration="21.00" routeLength="230.50" waitingTime="0.00" waitingCount="0" stopTime="0.00" timeLoss="3.04" rerouteNo="0" devices="tripinfo_V105.0 battery_V105.0" vType="DEFAULT_VEHTYPE" speedFactor="0.94" vaporized=""/>
    <tripinfo id="V86.0" depart="0.00" departLane="-gneE48_0" departPos="5.10" departPosLat="0.00" departSpeed="0.00" departDelay="0.00" arrival="21.00" arrivalLane="-gneE48_0" arrivalPos="235.60" arrivalPosLat="0.00" arrivalSpeed="13.12" duration="21.00" routeLength="230.50" waitingTime="0.00" waitingCount="0" stopTime="0.00" timeLoss="3.70" rerouteNo="0" devices="tripinfo_V86.0 battery_V86.0" vType="DEFAULT_VEHTYPE" speedFactor="1.01" vaporized=""/>
    <tripinfo id="V33.0" depart="3.00" departLane="gneE61_0" departPos="5.10" departPosLat="0.00" departSpeed="0.00" departDelay="3.00" arrival="25.00" arrivalLane="gneE61_0" arrivalPos="239.60" arrivalPosLat="0.00" arrivalSpeed="13.03" duration="22.00" routeLength="234.50" waitingTime="0.00" waitingCount="0" stopTime="0.00" timeLoss="3.92" rerouteNo="0" devices="tripinfo_V33.0 battery_V33.0" vType="DEFAULT_VEHTYPE" speedFactor="0.98" vaporized=""/>
    <tripinfo id="V27.0" depart="3.00" departLane="gneE79_0" departPos="5.10" departPosLat="0.00" departSpeed="0.00" departDelay="3.00" arrival="27.00" arrivalLane="gneE79_0" arrivalPos="200.78" arrivalPosLat="0.00" arrivalSpeed="7.16" duration="24.00" routeLength="195.68" waitingTime="1.00" waitingCount="1" stopTime="0.00" timeLoss="9.80" rerouteNo="0" devices="tripinfo_V27.0 battery_V27.0" vType="DEFAULT_VEHTYPE" speedFactor="1.02" vaporized=""/>
    <tripinfo id="V111.0" depart="0.00" departLane="gneE71_0" departPos="5.10" departPosLat="0.00" departSpeed="0.00" departDelay="0.00" arrival="52.00" arrivalLane="-gneE61_0" arrivalPos="239.60" arrivalPosLat="0.00" arrivalSpeed="12.15" duration="52.00" routeLength="484.29" waitingTime="3.00" waitingCount="1" stopTime="0.00" timeLoss="13.13" rerouteNo="0" devices="tripinfo_V111.0 battery_V111.0" vType="DEFAULT_VEHTYPE" speedFactor="0.93" vaporized=""/>
    <tripinfo id="V83.0" depart="3.00" departLane="-gneE71_0" departPos="5.10" departPosLat="0.00" departSpeed="0.00" departDelay="3.00" arrival="52.00" arrivalLane="gneE51_0" arrivalPos="235.60" arrivalPosLat="0.00" arrivalSpeed="7.15" duration="49.00" routeLength="475.13" waitingTime="0.00" waitingCount="0" stopTime="0.00" timeLoss="12.22" rerouteNo="0" devices="tripinfo_V83.0 battery_V83.0" vType="DEFAULT_VEHTYPE" speedFactor="0.96" vaporized=""/>
    <tripinfo id="V136.0" depart="0.00" departLane="-gneE63_0" departPos="5.10" departPosLat="0.00" departSpeed="0.00" departDelay="0.00" arrival="54.00" arrivalLane="-gneE61_0" arrivalPos="239.60" arrivalPosLat="0.00" arrivalSpeed="14.06" duration="54.00" routeLength="738.50" waitingTime="0.00" waitingCount="0" stopTime="0.00" timeLoss="5.04" rerouteNo="0" devices="tripinfo_V136.0 battery_V136.0" vType="DEFAULT_VEHTYPE" speedFactor="1.09" vaporized=""/>
    <tripinfo id="V71.0" depart="9.00" departLane="gneE68_0" departPos="5.10" departPosLat="0.00" departSpeed="0.00" departDelay="9.00" arrival="55.00" arrivalLane="gneE66_0" arrivalPos="239.60" arrivalPosLat="0.00" arrivalSpeed="14.21" duration="46.00" routeLength="479.13" waitingTime="0.00" waitingCount="0" stopTime="0.00" timeLoss="12.40" rerouteNo="0" devices="tripinfo_V71.0 battery_V71.0" vType="DEFAULT_VEHTYPE" speedFactor="1.07" vaporized=""/>
    <tripinfo id="V19.0" depart="0.00" departLane="gneE85_0" departPos="5.10" departPosLat="0.00" departSpeed="0.00" departDelay="0.00" arrival="57.00" arrivalLane="-gneE53_0" arrivalPos="239.60" arrivalPosLat="0.00" arrivalSpeed="15.29" duration="57.00" routeLength="530.29" waitingTime="9.00" waitingCount="1" stopTime="0.00" timeLoss="21.75" rerouteNo="0" devices="tripinfo_V19.0 battery_V19.0" vType="DEFAULT_VEHTYPE" speedFactor="1.12" vaporized=""/>
    <tripinfo id="V126.0" depart="0.00" departLane="-gneE60_0" departPos="5.10" departPosLat="0.00" departSpeed="0.00" departDelay="0.00" arrival="58.00" arrivalLane="gneE54_0" arrivalPos="235.60" arrivalPosLat="0.00" arrivalSpeed="14.68" duration="58.00" routeLength="734.29" waitingTime="0.00" waitingCount="0" stopTime="0.00" timeLoss="11.43" rerouteNo="0" devices="tripinfo_V126.0 battery_V126.0" vType="DEFAULT_VEHTYPE" speedFactor="1.15" vaporized=""/>
    <tripinfo id="V66.0" depart="3.00" departLane="-gneE53_0" departPos="5.10" departPosLat="0.00" departSpeed="0.00" departDelay="3.00" arrival="63.00" arrivalLane="-gneE79_0" arrivalPos="200.78" arrivalPosLat="0.00" arrivalSpeed="12.78" duration="60.00" routeLength="688.94" waitingTime="0.00" waitingCount="0" stopTime="0.00" timeLoss="9.46" rerouteNo="0" devices="tripinfo_V66.0 battery_V66.0" vType="DEFAULT_VEHTYPE" speedFactor="1.01" vaporized=""/>
    <tripinfo id="V28.0" depart="0.00" departLane="-gneE46_0" departPos="5.10" departPosLat="0.00" departSpeed="0.00" departDelay="0.00" arrival="65.00" arrivalLane="gneE54_0" arrivalPos="235.60" arrivalPosLat="0.00" arrivalSpeed="13.10" duration="65.00" routeLength="721.30" waitingTime="0.00" waitingCount="0" stopTime="0.00" timeLoss="10.16" rerouteNo="0" devices="tripinfo_V28.0 battery_V28.0" vType="DEFAULT_VEHTYPE" speedFactor="0.97" vaporized=""/>
    <tripinfo id="V65.0" depart="3.00" departLane="-gneE79_0" departPos="5.10" departPosLat="0.00" departSpeed="0.00" departDelay="3.00" arrival="65.00" arrivalLane="-gneE46_0" arrivalPos="239.59" arrivalPosLat="0.00" arrivalSpeed="14.17" duration="62.00" routeLength="478.90" waitingTime="18.00" waitingCount="1" stopTime="0.00" timeLoss="29.53" rerouteNo="0" devices="tripinfo_V65.0 battery_V65.0" vType="DEFAULT_VEHTYPE" speedFactor="1.10" vaporized=""/>
    <tripinfo id="V87.0" depart="9.00" departLane="-gneE78_0" departPos="5.10" departPosLat="0.00" departSpeed="0.00" departDelay="9.00" arrival="72.00" arrivalLane="gneE68_0" arrivalPos="235.60" arrivalPosLat="0.00" arrivalSpeed="14.75" duration="63.00" routeLength="765.13" waitingTime="0.00" waitingCount="0" stopTime="0.00" timeLoss="11.70" rerouteNo="0" devices="tripinfo_V87.0 battery_V87.0" vType="DEFAULT_VEHTYPE" speedFactor="1.12" vaporized=""/>
    <tripinfo id="V44.0" depart="3.00" departLane="-gneE49_0" departPos="5.10" departPosLat="0.00" departSpeed="0.00" departDelay="3.00" arrival="74.00" arrivalLane="gneE85_0" arrivalPos="6.93" arrivalPosLat="0.00" arrivalSpeed="7.39" duration="71.00" routeLength="764.64" waitingTime="0.00" waitingCount="0" stopTime="0.00" timeLoss="14.61" rerouteNo="0" devices="tripinfo_V44.0 battery_V44.0" vType="DEFAULT_VEHTYPE" speedFactor="1.02" vaporized=""/>
    <tripinfo id="V148.0" depart="12.00" departLane="gneE48_0" departPos="5.10" departPosLat="0.00" departSpeed="0.00" departDelay="12.00" arrival="76.00" arrivalLane="-gneE79_0" arrivalPos="200.78" arrivalPosLat="0.00" arrivalSpeed="12.75" duration="64.00" routeLength="695.26" waitingTime="0.00" waitingCount="0" stopTime="0.00" timeLoss="11.57" rerouteNo="0" devices="tripinfo_V148.0 battery_V148.0" vType="DEFAULT_VEHTYPE" speedFactor="1.00" vaporized=""/>
    <tripinfo id="V9.0" depart="6.00" departLane="-gneE71_0" departPos="5.10" departPosLat="0.00" departSpeed="0.00" departDelay="6.00" arrival="80.00" arrivalLane="gneE69_0" arrivalPos="235.60" arrivalPosLat="0.00" arrivalSpeed="12.32" duration="74.00" routeLength="730.29" waitingTime="5.00" waitingCount="1" stopTime="0.00" timeLoss="17.30" rerouteNo="0" devices="tripinfo_V9.0 battery_V9.0" vType="DEFAULT_VEHTYPE" speedFactor="0.95" vaporized=""/>
    <tripinfo id="V93.0" depart="6.00" departLane="gneE62_0" departPos="5.10" departPosLat="0.00" departSpeed="0.00" departDelay="6.00" arrival="81.00" arrivalLane="-gneE59_0" arrivalPos="235.60" arrivalPosLat="0.00" arrivalSpeed="15.36" duration="75.00" routeLength="969.76" waitingTime="0.00" waitingCount="0" stopTime="0.00" timeLoss="11.57" rerouteNo="0" devices="tripinfo_V93.0 battery_V93.0" vType="DEFAULT_VEHTYPE" speedFactor="1.13" vaporized=""/>
    <tripinfo id="V95.0" depart="9.00" departLane="gneE57_0" departPos="5.10" departPosLat="0.00" departSpeed="0.00" departDelay="9.00" arrival="83.00" arrivalLane="gneE60_0" arrivalPos="239.60" arrivalPosLat="0.00" arrivalSpeed="15.49" duration="74.00" routeLength="728.92" waitingTime="2.00" waitingCount="2" stopTime="0.00" timeLoss="26.46" rerouteNo="0" devices="tripinfo_V95.0 battery_V95.0" vType="DEFAULT_VEHTYPE" speedFactor="1.14" vaporized=""/>
    <tripinfo id="V72.0" depart="6.00" departLane="gneE57_0" departPos="5.10" departPosLat="0.00" departSpeed="0.00" departDelay="6.00" arrival="85.00" arrivalLane="gneE52_0" arrivalPos="235.60" arrivalPosLat="0.00" arrivalSpeed="12.70" duration="79.00" routeLength="730.08" waitingTime="5.00" waitingCount="2" stopTime="0.00" timeLoss="21.12" rerouteNo="0" devices="tripinfo_V72.0 battery_V72.0" vType="DEFAULT_VEHTYPE" speedFactor="0.94" vaporized=""/>
    <tripinfo id="V133.0" depart="0.00" departLane="gneE61_0" departPos="5.10" departPosLat="0.00" departSpeed="0.00" departDelay="0.00" arrival="90.00" arrivalLane="gneE69_0" arrivalPos="235.60" arrivalPosLat="0.00" arrivalSpeed="11.26" duration="90.00" routeLength="978.92" waitingTime="0.00" waitingCount="0" stopTime="0.00" timeLoss="9.82" rerouteNo="0" devices="tripinfo_V133.0 battery_V133.0" vType="DEFAULT_VEHTYPE" speedFactor="0.90" vaporized=""/>
    <tripinfo id="V42.0" depart="0.00" departLane="-gneE53_0" departPos="5.10" departPosLat="0.00" departSpeed="0.00" departDelay="0.00" arrival="90.00" arrivalLane="-gneE46_0" arrivalPos="239.59" arrivalPosLat="0.00" arrivalSpeed="5.51" duration="90.00" routeLength="972.16" waitingTime="0.00" waitingCount="0" stopTime="0.00" timeLoss="21.03" rerouteNo="0" devices="tripinfo_V42.0 battery_V42.0" vType="DEFAULT_VEHTYPE" speedFactor="1.04" vaporized=""/>
    <tripinfo id="V104.0" depart="0.00" departLane="-gneE68_0" departPos="5.10" departPosLat="0.00" departSpeed="0.00" departDelay="0.00" arrival="94.00" arrivalLane="gneE65_0" arrivalPos="235.60" arrivalPosLat="0.00" arrivalSpeed="11.80" duration="94.00" routeLength="964.39" waitingTime="0.00" waitingCount="0" stopTime="0.00" timeLoss="12.56" rerouteNo="0" devices="tripinfo_V104.0 battery_V104.0" vType="DEFAULT_VEHTYPE" speedFactor="0.89" vaporized=""/>
    <tripinfo id="V135.0" depart="3.00" departLane="gneE52_0" departPos="5.10" departPosLat="0.00" departSpeed="0.00" departDelay="3.00" arrival="95.00" arrivalLane="gneE47_0" arrivalPos="232.55" arrivalPosLat="0.00" arrivalSpeed="13.26" duration="92.00" routeLength="981.83" waitingTime="1.00" waitingCount="1" stopTime="0.00" timeLoss="16.68" rerouteNo="0" devices="tripinfo_V135.0 battery_V135.0" vType="DEFAULT_VEHTYPE" speedFactor="0.96" vaporized=""/>
    <tripinfo id="V5.0" depart="0.00" departLane="gneE66_0" departPos="5.10" departPosLat="0.00" departSpeed="0.00" departDelay="0.00" arrival="96.00" arrivalLane="gneE47_0" arrivalPos="232.55" arrivalPosLat="0.00" arrivalSpeed="13.83" duration="96.00" routeLength="1053.06" waitingTime="0.00" waitingCount="0" stopTime="0.00" timeLoss="22.03" rerouteNo="0" devices="tripinfo_V5.0 battery_V5.0" vType="DEFAULT_VEHTYPE" speedFactor="1.06" vaporized=""/>
    <tripinfo id="V43.0" depart="6.00" departLane="-gneE50_0" departPos="5.10" departPosLat="0.00" departSpeed="0.00" departDelay="6.00" arrival="97.00" arrivalLane="-gneE54_0" arrivalPos="235.60" arrivalPosLat="0.00" arrivalSpeed="13.16" duration="91.00" routeLength="969.76" waitingTime="0.00" waitingCount="0" stopTime="0.00" timeLoss="19.40" rerouteNo="0" devices="tripinfo_V43.0 battery_V43.0" vType="DEFAULT_VEHTYPE" speedFactor="1.01" vaporized=""/>
    <tripinfo id="V49.0" depart="0.00" departLane="gneE53_0" departPos="5.10" departPosLat="0.00" departSpeed="0.00" departDelay="0.00" arrival="97.00" arrivalLane="-gneE59_0" arrivalPos="235.60" arrivalPosLat="0.00" arrivalSpeed="15.06" duration="97.00" routeLength="1231.41" waitingTime="0.00" waitingCount="0" stopTime="0.00" timeLoss="13.71" rerouteNo="0" devices="tripinfo_V49.0 battery_V49.0" vType="DEFAULT_VEHTYPE" speedFactor="1.09" vaporized=""/>
    <tripinfo id="V100.0" depart="0.00" departLane="gneE60_0" departPos="5.10" departPosLat="0.00" departSpeed="0.00" departDelay="0.00" arrival="98.00" arrivalLane="gneE64_0" arrivalPos="239.60" arrivalPosLat="0.00" arrivalSpeed="15.03" duration="98.00" routeLength="1222.86" waitingTime="0.00" waitingCount="0" stopTime="0.00" timeLoss="15.80" rerouteNo="0" devices="tripinfo_V100.0 battery_V100.0" vType="DEFAULT_VEHTYPE" speedFactor="1.08" vaporized=""/>
    <tripinfo id="V23.0" depart="0.00" departLane="-gneE70_0" departPos="5.10" departPosLat="0.00" departSpeed="0.00" departDelay="0.00" arrival="98.00" arrivalLane="gneE85_0" arrivalPos="6.93" arrivalPosLat="0.00" arrivalSpeed="5.34" duration="98.00" routeLength="1014.64" waitingTime="0.00" waitingCount="0" stopTime="0.00" timeLoss="14.91" rerouteNo="0" devices="tripinfo_V23.0 battery_V23.0" vType="DEFAULT_VEHTYPE" speedFactor="0.91" vaporized=""/>
    <tripinfo id="V92.0" depart="9.00" departLane="-gneE71_0" departPos="5.10" departPosLat="0.00" departSpeed="0.00" departDelay="9.00" arrival="99.00" arrivalLane="gneE54_0" arrivalPos="235.60" arrivalPosLat="0.00" arrivalSpeed="11.87" duration="90.00" routeLength="974.71" waitingTime="0.00" waitingCount="0" stopTime="0.00" timeLoss="12.34" rerouteNo="0" devices="tripinfo_V92.0 battery_V92.0" vType="DEFAULT_VEHTYPE" speedFactor="0.94" vaporized=""/>
    <tripinfo id="V139.0" depart="0.00" departLane="gneE57_0" departPos="5.10" departPosLat="0.00" departSpeed="0.00" departDelay="0.00" arrival="100.00" arrivalLane="-gneE61_0" arrivalPos="239.60" arrivalPosLat="0.00" arrivalSpeed="6.49" duration="100.00" routeLength="734.29" waitingTime="35.00" waitingCount="1" stopTime="0.00" timeLoss="50.67" rerouteNo="0" devices="tripinfo_V139.0 battery_V139.0" vType="DEFAULT_VEHTYPE" speedFactor="1.09" vaporized=""/>
    <tripinfo id="V60.0" depart="3.00" departLane="gneE70_0" departPos="5.10" departPosLat="0.00" departSpeed="0.00" departDelay="3.00" arrival="100.00" arrivalLane="-gneE57_0" arrivalPos="235.60" arrivalPosLat="0.00" arrivalSpeed="13.73" duration="97.00" routeLength="980.08" waitingTime="12.00" waitingCount="1" stopTime="0.00" timeLoss="27.12" rerouteNo="0" devices="tripinfo_V60.0 battery_V60.0" vType="DEFAULT_VEHTYPE" speedFactor="1.03" vaporized=""/>
    <tripinfo id="V129.0" depart="0.00" departLane="gneE46_0" departPos="5.10" departPosLat="0.00" departSpeed="0.00" departDelay="0.00" arrival="102.00" arrivalLane="gneE69_0" arrivalPos="235.60" arrivalPosLat="0.00" arrivalSpeed="13.52" duration="102.00" routeLength="1228.91" waitingTime="0.00" waitingCount="0" stopTime="0.00" timeLoss="10.90" rerouteNo="0" devices="tripinfo_V129.0 battery_V129.0" vType="DEFAULT_VEHTYPE" speedFactor="0.99" vaporized=""/>
    <tripinfo id="V58.0" depart="0.00" departLane="-gneE47_0" departPos="5.10" departPosLat="0.00" departSpeed="0.00" departDelay="0.00" arrival="103.00" arrivalLane="-gneE67_0" arrivalPos="239.60" arrivalPosLat="0.00" arrivalSpeed="11.60" duration="103.00" routeLength="810.88" waitingTime="15.00" waitingCount="1" stopTime="0.00" timeLoss="34.47" rerouteNo="0" devices="tripinfo_V58.0 battery_V58.0" vType="DEFAULT_VEHTYPE" speedFactor="0.89" vaporized=""/>
    <tripinfo id="V34.0" depart="12.00" departLane="gneE49_0" departPos="5.10" departPosLat="0.00" departSpeed="0.00" departDelay="12.00" arrival="105.00" arrivalLane="-gneE68_0" arrivalPos="235.60" arrivalPosLat="0.00" arrivalSpeed="12.86" duration="93.00" routeLength="964.39" waitingTime="4.00" waitingCount="1" stopTime="0.00" timeLoss="21.86" rerouteNo="0" devices="tripinfo_V34.0 battery_V34.0" vType="DEFAULT_VEHTYPE" speedFactor="1.01" vaporized=""/>
    <tripinfo id="V77.0" depart="6.00" departLane="-gneE49_0" departPos="5.10" departPosLat="0.00" departSpeed="0.00" departDelay="6.00" arrival="105.00" arrivalLane="gneE52_0" arrivalPos="235.60" arrivalPosLat="0.00" arrivalSpeed="15.16" duration="99.00" routeLength="1219.34" waitingTime="2.00" waitingCount="1" stopTime="0.00" timeLoss="20.17" rerouteNo="0" devices="tripinfo_V77.0 battery_V77.0" vType="DEFAULT_VEHTYPE" speedFactor="1.15" vaporized=""/>
    <tripinfo id="V82.0" depart="3.00" departLane="-gneE46_0" departPos="5.10" departPosLat="0.00" departSpeed="0.00" departDelay="3.00" arrival="105.00" arrivalLane="-gneE57_0" arrivalPos="235.60" arrivalPosLat="0.00" arrivalSpeed="14.60" duration="102.00" routeLength="1215.93" waitingTime="0.00" waitingCount="0" stopTime="0.00" timeLoss="17.47" rerouteNo="0" devices="tripinfo_V82.0 battery_V82.0" vType="DEFAULT_VEHTYPE" speedFactor="1.07" vaporized=""/>
    <tripinfo id="V1.0" depart="0.00" departLane="-gneE52_0" departPos="5.10" departPosLat="0.00" departSpeed="0.00" departDelay="0.00" arrival="106.00" arrivalLane="gneE63_0" arrivalPos="239.60" arrivalPosLat="0.00" arrivalSpeed="12.70" duration="106.00" routeLength="1230.68" waitingTime="0.00" waitingCount="0" stopTime="0.00" timeLoss="10.57" rerouteNo="0" devices="tripinfo_V1.0 battery_V1.0" vType="DEFAULT_VEHTYPE" speedFactor="0.94" vaporized=""/>
    <tripinfo id="V115.0" depart="0.00" departLane="gneE79_0" departPos="5.10" departPosLat="0.00" departSpeed="0.00" departDelay="0.00" arrival="106.00" arrivalLane="-gneE59_0" arrivalPos="235.60" arrivalPosLat="0.00" arrivalSpeed="9.61" duration="106.00" routeLength="1179.57" waitingTime="5.00" waitingCount="1" stopTime="0.00" timeLoss="30.33" rerouteNo="0" devices="tripinfo_V115.0 battery_V115.0" vType="DEFAULT_VEHTYPE" speedFactor="1.16" vaporized=""/>
    <tripinfo id="V7.0" depart="0.00" departLane="-gneE71_0" departPos="5.10" departPosLat="0.00" departSpeed="0.00" departDelay="0.00" arrival="106.00" arrivalLane="-gneE46_0" arrivalPos="239.59" arrivalPosLat="0.00" arrivalSpeed="13.65" duration="106.00" routeLength="978.90" waitingTime="19.00" waitingCount="1" stopTime="0.00" timeLoss="34.17" rerouteNo="0" devices="tripinfo_V7.0 battery_V7.0" vType="DEFAULT_VEHTYPE" speedFactor="1.00" vaporized=""/>
    <tripinfo id="V10.0" depart="3.00" departLane="gneE49_0" departPos="5.10" departPosLat="0.00" departSpeed="0.00" departDelay="3.00" arrival="107.00" arrivalLane="gneE50_0" arrivalPos="235.60" arrivalPosLat="0.00" arrivalSpeed="8.28" duration="104.00" routeLength="480.29" waitingTime="44.00" waitingCount="2" stopTime="0.00" timeLoss="69.15" rerouteNo="0" devices="tripinfo_V10.0 battery_V10.0" vType="DEFAULT_VEHTYPE" speedFactor="1.01" vaporized=""/>
    <tripinfo id="V116.0" depart="0.00" departLane="-gneE57_0" departPos="5.10" departPosLat="0.00" departSpeed="0.00" departDelay="0.00" arrival="107.00" arrivalLane="-gneE48_0" arrivalPos="235.60" arrivalPosLat="0.00" arrivalSpeed="6.04" duration="107.00" routeLength="724.92" waitingTime="29.00" waitingCount="2" stopTime="0.00" timeLoss="54.23" rerouteNo="0" devices="tripinfo_V116.0 battery_V116.0" vType="DEFAULT_VEHTYPE" speedFactor="1.02" vaporized=""/>
    <tripinfo id="V130.0" depart="6.00" departLane="-gneE69_0" departPos="5.10" departPosLat="0.00" departSpeed="0.00" departDelay="6.00" arrival="108.00" arrivalLane="gneE85_0" arrivalPos="6.93" arrivalPosLat="0.00" arrivalSpeed="5.57" duration="102.00" routeLength="1014.43" waitingTime="4.00" waitingCount="1" stopTime="0.00" timeLoss="24.95" rerouteNo="0" devices="tripinfo_V130.0 battery_V130.0" vType="DEFAULT_VEHTYPE" speedFactor="0.97" vaporized=""/>
    <tripinfo id="V54.0" depart="3.00" departLane="gneE62_0" departPos="5.10" departPosLat="0.00" departSpeed="0.00" departDelay="3.00" arrival="108.00" arrivalLane="gneE78_0" arrivalPos="25.60" arrivalPosLat="0.00" arrivalSpeed="13.28" duration="105.00" routeLength="1254.83" waitingTime="0.00" waitingCount="0" stopTime="0.00" timeLoss="17.92" rerouteNo="0" devices="tripinfo_V54.0 battery_V54.0" vType="DEFAULT_VEHTYPE" speedFactor="1.07" vaporized=""/>
    <tripinfo id="V55.0" depart="3.00" departLane="-gneE62_0" departPos="5.10" departPosLat="0.00" departSpeed="0.00" departDelay="3.00" arrival="109.00" arrivalLane="gneE53_0" arrivalPos="239.60" arrivalPosLat="0.00" arrivalSpeed="12.07" duration="106.00" routeLength="1235.84" waitingTime="0.00" waitingCount="0" stopTime="0.00" timeLoss="12.08" rerouteNo="0" devices="tripinfo_V55.0 battery_V55.0" vType="DEFAULT_VEHTYPE" speedFactor="0.96" vaporized=""/>
    <tripinfo id="V101.0" depart="3.00" departLane="gneE60_0" departPos="5.10" departPosLat="0.00" departSpeed="0.00" departDelay="3.00" arrival="110.00" arrivalLane="-gneE50_0" arrivalPos="235.60" arrivalPosLat="0.00" arrivalSpeed="8.24" duration="107.00" routeLength="971.10" waitingTime="12.00" waitingCount="2" stopTime="0.00" timeLoss="37.28" rerouteNo="0" devices="tripinfo_V101.0 battery_V101.0" vType="DEFAULT_VEHTYPE" speedFactor="1.03" vaporized=""/>
    <tripinfo id="V112.0" depart="0.00" departLane="-gneE69_0" departPos="5.10" departPosLat="0.00" departSpeed="0.00" departDelay="0.00" arrival="111.00" arrivalLane="-gneE71_0" arrivalPos="235.60" arrivalPosLat="0.00" arrivalSpeed="12.01" duration="111.00" routeLength="974.71" waitingTime="12.00" waitingCount="1" stopTime="0.00" timeLoss="28.53" rerouteNo="0" devices="tripinfo_V112.0 battery_V112.0" vType="DEFAULT_VEHTYPE" speedFactor="0.88" vaporized=""/>
    <tripinfo id="V145.0" depart="3.00" departLane="gneE78_0" departPos="5.10" departPosLat="0.00" departSpeed="0.00" departDelay="3.00" arrival="111.00" arrivalLane="gneE59_0" arrivalPos="235.60" arrivalPosLat="0.00" arrivalSpeed="5.59" duration="108.00" routeLength="473.90" waitingTime="43.00" waitingCount="3" stopTime="0.00" timeLoss="73.84" rerouteNo="0" devices="tripinfo_V145.0 battery_V145.0" vType="DEFAULT_VEHTYPE" speedFactor="1.02" vaporized=""/>
    <tripinfo id="V35.0" depart="0.00" departLane="gneE70_0" departPos="5.10" departPosLat="0.00" departSpeed="0.00" departDelay="0.00" arrival="112.00" arrivalLane="-gneE50_0" arrivalPos="235.60" arrivalPosLat="0.00" arrivalSpeed="9.07" duration="112.00" routeLength="979.87" waitingTime="18.00" waitingCount="2" stopTime="0.00" timeLoss="44.35" rerouteNo="0" devices="tripinfo_V35.0 battery_V35.0" vType="DEFAULT_VEHTYPE" speedFactor="1.09" vaporized=""/>
    <tripinfo id="V125.0" depart="3.00" departLane="-gneE54_0" departPos="5.10" departPosLat="0.00" departSpeed="0.00" departDelay="3.00" arrival="113.00" arrivalLane="-gneE71_0" arrivalPos="235.60" arrivalPosLat="0.00" arrivalSpeed="16.08" duration="110.00" routeLength="1215.94" waitingTime="13.00" waitingCount="1" stopTime="0.00" timeLoss="34.76" rerouteNo="0" devices="tripinfo_V125.0 battery_V125.0" vType="DEFAULT_VEHTYPE" speedFactor="1.18" vaporized=""/>
    <tripinfo id="V140.0" depart="6.00" departLane="gneE48_0" departPos="5.10" departPosLat="0.00" departSpeed="0.00" departDelay="6.00" arrival="113.00" arrivalLane="gneE50_0" arrivalPos="235.60" arrivalPosLat="0.00" arrivalSpeed="7.97" duration="107.00" routeLength="730.29" waitingTime="26.00" waitingCount="1" stopTime="0.00" timeLoss="47.40" rerouteNo="0" devices="tripinfo_V140.0 battery_V140.0" vType="DEFAULT_VEHTYPE" speedFactor="0.90" vaporized=""/>
    <tripinfo id="V70.0" depart="3.00" departLane="gneE57_0" departPos="5.10" departPosLat="0.00" departSpeed="0.00" departDelay="3.00" arrival="113.00" arrivalLane="gneE84_0" arrivalPos="15.83" arrivalPosLat="0.00" arrivalSpeed="8.28" duration="110.00" routeLength="1245.55" waitingTime="0.00" waitingCount="0" stopTime="0.00" timeLoss="16.96" rerouteNo="0" devices="tripinfo_V70.0 battery_V70.0" vType="DEFAULT_VEHTYPE" speedFactor="0.99" vaporized=""/>
    <tripinfo id="V119.0" depart="3.00" departLane="gneE47_0" departPos="5.10" departPosLat="0.00" departSpeed="0.00" departDelay="3.00" arrival="114.00" arrivalLane="-gneE64_0" arrivalPos="239.60" arrivalPosLat="0.00" arrivalSpeed="11.23" duration="111.00" routeLength="1232.79" waitingTime="0.00" waitingCount="0" stopTime="0.00" timeLoss="9.93" rerouteNo="0" devices="tripinfo_V119.0 battery_V119.0" vType="DEFAULT_VEHTYPE" speedFactor="0.89" vaporized=""/>
    <tripinfo id="V91.0" depart="6.00" departLane="gneE70_0" departPos="5.10" departPosLat="0.00" departSpeed="0.00" departDelay="6.00" arrival="114.00" arrivalLane="-gneE50_0" arrivalPos="235.60" arrivalPosLat="0.00" arrivalSpeed="10.30" duration="108.00" routeLength="979.87" waitingTime="13.00" waitingCount="2" stopTime="0.00" timeLoss="45.38" rerouteNo="0" devices="tripinfo_V91.0 battery_V91.0" vType="DEFAULT_VEHTYPE" speedFactor="1.16" vaporized=""/>
    <tripinfo id="V63.0" depart="3.00" departLane="gneE66_0" departPos="5.10" departPosLat="0.00" departSpeed="0.00" departDelay="3.00" arrival="116.00" arrivalLane="-gneE53_0" arrivalPos="239.60" arrivalPosLat="0.00" arrivalSpeed="6.64" duration="113.00" routeLength="1222.85" waitingTime="0.00" waitingCount="0" stopTime="0.00" timeLoss="17.32" rerouteNo="0" devices="tripinfo_V63.0 battery_V63.0" vType="DEFAULT_VEHTYPE" speedFactor="0.93" vaporized=""/>
    <tripinfo id="V131.0" depart="3.00" departLane="gneE46_0" departPos="5.10" departPosLat="0.00" departSpeed="0.00" departDelay="3.00" arrival="117.00" arrivalLane="gneE50_0" arrivalPos="235.60" arrivalPosLat="0.00" arrivalSpeed="8.32" duration="114.00" routeLength="1234.07" waitingTime="2.00" waitingCount="1" stopTime="0.00" timeLoss="37.29" rerouteNo="0" devices="tripinfo_V131.0 battery_V131.0" vType="DEFAULT_VEHTYPE" speedFactor="1.18" vaporized=""/>
    <tripinfo id="V20.0" depart="0.00" departLane="-gneE66_0" departPos="5.10" departPosLat="0.00" departSpeed="0.00" departDelay="0.00" arrival="117.00" arrivalLane="gneE83_0" arrivalPos="7.95" arrivalPosLat="0.00" arrivalSpeed="6.87" duration="117.00" routeLength="992.98" waitingTime="21.00" waitingCount="1" stopTime="0.00" timeLoss="41.57" rerouteNo="0" devices="tripinfo_V20.0 battery_V20.0" vType="DEFAULT_VEHTYPE" speedFactor="0.99" vaporized=""/>
    <tripinfo id="V39.0" depart="6.00" departLane="gneE59_0" departPos="5.10" departPosLat="0.00" departSpeed="0.00" departDelay="6.00" arrival="117.00" arrivalLane="gneE66_0" arrivalPos="239.60" arrivalPosLat="0.00" arrivalSpeed="12.54" duration="111.00" routeLength="729.13" waitingTime="38.00" waitingCount="1" stopTime="0.00" timeLoss="55.08" rerouteNo="0" devices="tripinfo_V39.0 battery_V39.0" vType="DEFAULT_VEHTYPE" speedFactor="0.97" vaporized=""/>
    <tripinfo id="V122.0" depart="0.00" departLane="-gneE54_0" departPos="5.10" departPosLat="0.00" departSpeed="0.00" departDelay="0.00" arrival="118.00" arrivalLane="gneE84_0" arrivalPos="15.83" arrivalPosLat="0.00" arrivalSpeed="7.79" duration="118.00" routeLength="774.15" waitingTime="37.00" waitingCount="2" stopTime="0.00" timeLoss="56.94" rerouteNo="0" devices="tripinfo_V122.0 battery_V122.0" vType="DEFAULT_VEHTYPE" speedFactor="0.95" vaporized=""/>
    <tripinfo id="V24.0" depart="3.00" departLane="gneE59_0" departPos="5.10" departPosLat="0.00" departSpeed="0.00" departDelay="3.00" arrival="118.00" arrivalLane="gneE69_0" arrivalPos="235.60" arrivalPosLat="0.00" arrivalSpeed="11.57" duration="115.00" routeLength="724.92" waitingTime="39.00" waitingCount="1" stopTime="0.00" timeLoss="55.50" rerouteNo="0" devices="tripinfo_V24.0 battery_V24.0" vType="DEFAULT_VEHTYPE" speedFactor="0.91" vaporized=""/>
    <tripinfo id="V29.0" depart="3.00" departLane="-gneE78_0" departPos="5.10" departPosLat="0.00" departSpeed="0.00" departDelay="3.00" arrival="120.00" arrivalLane="-gneE62_0" arrivalPos="235.60" arrivalPosLat="0.00" arrivalSpeed="12.35" duration="117.00" routeLength="1270.29" waitingTime="3.00" waitingCount="1" stopTime="0.00" timeLoss="16.62" rerouteNo="0" devices="tripinfo_V29.0 battery_V29.0" vType="DEFAULT_VEHTYPE" speedFactor="0.94" vaporized=""/>