<?xml version="1.0" encoding="UTF-8"?>

<!-- generated on 03/31/21 11:12:33 by Eclipse SUMO GUI Version v1_8_0+1742-ceeb7fe3f3
<configuration xmlns:xsi="http://www.w3.org/2001/XMLSchema-instance" xsi:noNamespaceSchemaLocation="http://sumo.dlr.de/xsd/sumoConfiguration.xsd">

    <input>
        <net-file value="data/EVGrid.net.xml"/>
        <route-files value="data/electricvehicles.rou.xml"/>
        <additional-files value="data/EVGrid_additionals.add.xml"/>
    </input>

    <output>
        <battery-output value="data/battery.out.xml"/>
        <battery-output.precision value="4"/>
        <chargingstations-output value="data/EVGrid_chargingstations.xml"/>
        <summary-output value="data/summary-overview.xml"/>
        <tripinfo-output value="tripinfo.xml"/>
    </output>

    <processing>
        <lateral-resolution value="1"/>
    </processing>

    <battery>
        <device.battery.probability value="1"/>
    </battery>

    <traci_server>
        <remote-port value="51098"/>
    </traci_server>

    <gui_only>
        <gui-settings-file value="data/gui-settings.cfg"/>
    </gui_only>

</configuration>
-->

<tripinfos xmlns:xsi="http://www.w3.org/2001/XMLSchema-instance" xsi:noNamespaceSchemaLocation="http://sumo.dlr.de/xsd/tripinfo_file.xsd">
    <tripinfo id="V94.0" depart="0.00" departLane="-gneE69_0" departPos="5.10" departPosLat="0.00" departSpeed="0.00" departDelay="0.00" arrival="19.00" arrivalLane="-gneE69_0" arrivalPos="235.60" arrivalPosLat="0.00" arrivalSpeed="14.33" duration="19.00" routeLength="230.50" waitingTime="0.00" waitingCount="0" stopTime="0.00" timeLoss="3.56" rerouteNo="0" devices="tripinfo_V94.0 battery_V94.0" vType="DEFAULT_VEHTYPE" speedFactor="1.09" vaporized=""/>
    <tripinfo id="V29.0" depart="0.00" departLane="gneE48_0" departPos="5.10" departPosLat="0.00" departSpeed="0.00" departDelay="0.00" arrival="21.00" arrivalLane="gneE48_0" arrivalPos="235.60" arrivalPosLat="0.00" arrivalSpeed="12.30" duration="21.00" routeLength="230.50" waitingTime="0.00" waitingCount="0" stopTime="0.00" timeLoss="3.92" rerouteNo="0" devices="tripinfo_V29.0 battery_V29.0" vType="DEFAULT_VEHTYPE" speedFactor="0.98" vaporized=""/>
    <tripinfo id="V39.0" depart="6.00" departLane="-gneE47_0" departPos="5.10" departPosLat="0.00" departSpeed="0.00" departDelay="6.00" arrival="31.00" arrivalLane="gneE78_0" arrivalPos="26.81" arrivalPosLat="0.00" arrivalSpeed="12.14" duration="25.00" routeLength="265.64" waitingTime="0.00" waitingCount="0" stopTime="0.00" timeLoss="7.96" rerouteNo="0" devices="tripinfo_V39.0 battery_V39.0" vType="DEFAULT_VEHTYPE" speedFactor="1.17" vaporized=""/>
    <tripinfo id="V15.0" depart="0.00" departLane="gneE59_0" departPos="5.10" departPosLat="0.00" departSpeed="0.00" departDelay="0.00" arrival="53.00" arrivalLane="gneE68_0" arrivalPos="235.60" arrivalPosLat="0.00" arrivalSpeed="11.70" duration="53.00" routeLength="480.50" waitingTime="3.00" waitingCount="1" stopTime="0.00" timeLoss="13.12" rerouteNo="0" devices="tripinfo_V15.0 battery_V15.0" vType="DEFAULT_VEHTYPE" speedFactor="0.89" vaporized=""/>
    <tripinfo id="V43.0" depart="3.00" departLane="-gneE107_0" departPos="5.10" departPosLat="0.00" departSpeed="0.00" departDelay="3.00" arrival="53.00" arrivalLane="gneE53_0" arrivalPos="239.61" arrivalPosLat="0.00" arrivalSpeed="14.32" duration="50.00" routeLength="480.70" waitingTime="5.00" waitingCount="1" stopTime="0.00" timeLoss="17.59" rerouteNo="0" devices="tripinfo_V43.0 battery_V43.0" vType="DEFAULT_VEHTYPE" speedFactor="1.10" vaporized=""/>
    <tripinfo id="V8.0" depart="9.00" departLane="gneE49_0" departPos="5.10" departPosLat="0.00" departSpeed="0.00" departDelay="9.00" arrival="58.00" arrivalLane="gneE117_0" arrivalPos="25.10" arrivalPosLat="0.00" arrivalSpeed="13.65" duration="49.00" routeLength="518.47" waitingTime="0.00" waitingCount="0" stopTime="0.00" timeLoss="10.48" rerouteNo="0" devices="tripinfo_V8.0 battery_V8.0" vType="DEFAULT_VEHTYPE" speedFactor="1.01" vaporized=""/>
    <tripinfo id="V16.0" depart="0.00" departLane="gneE47_0" departPos="5.10" departPosLat="0.00" departSpeed="0.00" departDelay="0.00" arrival="62.00" arrivalLane="gneE127_0" arrivalPos="204.53" arrivalPosLat="0.00" arrivalSpeed="11.83" duration="62.00" routeLength="691.77" waitingTime="0.00" waitingCount="0" stopTime="0.00" timeLoss="7.63" rerouteNo="0" devices="tripinfo_V16.0 battery_V16.0" vType="DEFAULT_VEHTYPE" speedFactor="0.94" vaporized=""/>
    <tripinfo id="V20.0" depart="3.00" departLane="-gneE51_0" departPos="5.10" departPosLat="0.00" departSpeed="0.00" departDelay="3.00" arrival="63.00" arrivalLane="-gneE78_0" arrivalPos="26.81" arrivalPosLat="0.00" arrivalSpeed="6.85" duration="60.00" routeLength="725.13" waitingTime="0.00" waitingCount="0" stopTime="0.00" timeLoss="12.72" rerouteNo="0" devices="tripinfo_V20.0 battery_V20.0" vType="DEFAULT_VEHTYPE" speedFactor="1.12" vaporized=""/>
    <tripinfo id="V49.0" depart="3.00" departLane="gneE49_0" departPos="5.10" departPosLat="0.00" departSpeed="0.00" departDelay="3.00" arrival="66.00" arrivalLane="gneE125_0" arrivalPos="18.68" arrivalPosLat="0.00" arrivalSpeed="13.52" duration="63.00" routeLength="757.58" waitingTime="0.00" waitingCount="0" stopTime="0.00" timeLoss="9.07" rerouteNo="0" devices="tripinfo_V49.0 battery_V49.0" vType="DEFAULT_VEHTYPE" speedFactor="1.04" vaporized=""/>
    <tripinfo id="V64.0" depart="3.00" departLane="gneE61_0" departPos="5.10" departPosLat="0.00" departSpeed="0.00" departDelay="3.00" arrival="66.00" arrivalLane="-gneE107_0" arrivalPos="20.15" arrivalPosLat="0.00" arrivalSpeed="10.76" duration="63.00" routeLength="761.08" waitingTime="0.00" waitingCount="0" stopTime="0.00" timeLoss="13.16" rerouteNo="0" devices="tripinfo_V64.0 battery_V64.0" vType="DEFAULT_VEHTYPE" speedFactor="1.12" vaporized=""/>
    <tripinfo id="V33.0" depart="0.00" departLane="gneE50_0" departPos="5.10" departPosLat="0.00" departSpeed="0.00" departDelay="0.00" arrival="67.00" arrivalLane="gneE51_0" arrivalPos="235.60" arrivalPosLat="0.00" arrivalSpeed="6.74" duration="67.00" routeLength="480.50" waitingTime="15.00" waitingCount="2" stopTime="0.00" timeLoss="30.46" rerouteNo="0" devices="tripinfo_V33.0 battery_V33.0" vType="DEFAULT_VEHTYPE" speedFactor="0.95" vaporized=""/>
    <tripinfo id="V3.0" depart="0.00" departLane="-gneE64_0" departPos="5.10" departPosLat="0.00" departSpeed="0.00" departDelay="0.00" arrival="69.00" arrivalLane="-gneE70_0" arrivalPos="229.76" arrivalPosLat="0.00" arrivalSpeed="12.10" duration="69.00" routeLength="730.73" waitingTime="0.00" waitingCount="0" stopTime="0.00" timeLoss="8.20" rerouteNo="0" devices="tripinfo_V3.0 battery_V3.0" vType="DEFAULT_VEHTYPE" speedFactor="0.89" vaporized=""/>
    <tripinfo id="V68.0" depart="3.00" departLane="gneE48_0" departPos="5.10" departPosLat="0.00" departSpeed="0.00" departDelay="3.00" arrival="72.00" arrivalLane="gneE50_0" arrivalPos="235.60" arrivalPosLat="0.00" arrivalSpeed="12.17" duration="69.00" routeLength="730.29" waitingTime="0.00" waitingCount="0" stopTime="0.00" timeLoss="8.48" rerouteNo="0" devices="tripinfo_V68.0 battery_V68.0" vType="DEFAULT_VEHTYPE" speedFactor="0.88" vaporized=""/>
    <tripinfo id="V36.0" depart="0.00" departLane="-gneE70_0" departPos="5.10" departPosLat="0.00" departSpeed="0.00" departDelay="0.00" arrival="74.00" arrivalLane="-gneE67_0" arrivalPos="239.60" arrivalPosLat="0.00" arrivalSpeed="7.27" duration="74.00" routeLength="978.45" waitingTime="0.00" waitingCount="0" stopTime="0.00" timeLoss="13.47" rerouteNo="0" devices="tripinfo_V36.0 battery_V36.0" vType="DEFAULT_VEHTYPE" speedFactor="1.18" vaporized=""/>
    <tripinfo id="V62.0" depart="0.00" departLane="gneE117_0" departPos="5.10" departPosLat="0.00" departSpeed="0.00" departDelay="0.00" arrival="74.00" arrivalLane="-gneE60_0" arrivalPos="239.60" arrivalPosLat="0.00" arrivalSpeed="13.29" duration="74.00" routeLength="732.41" waitingTime="3.00" waitingCount="1" stopTime="0.00" timeLoss="18.84" rerouteNo="0" devices="tripinfo_V62.0 battery_V62.0" vType="DEFAULT_VEHTYPE" speedFactor="0.97" vaporized=""/>
    <tripinfo id="V70.0" depart="3.00" departLane="-gneE68_0" departPos="5.10" departPosLat="0.00" departSpeed="0.00" departDelay="3.00" arrival="77.00" arrivalLane="-gneE47_0" arrivalPos="230.60" arrivalPosLat="0.00" arrivalSpeed="13.30" duration="74.00" routeLength="719.92" waitingTime="9.00" waitingCount="1" stopTime="0.00" timeLoss="22.37" rerouteNo="0" devices="tripinfo_V70.0 battery_V70.0" vType="DEFAULT_VEHTYPE" speedFactor="1.04" vaporized=""/>
    <tripinfo id="V90.0" depart="6.00" departLane="gneE65_0" departPos="5.10" departPosLat="0.00" departSpeed="0.00" departDelay="6.00" arrival="86.00" arrivalLane="-gneE47_0" arrivalPos="230.60" arrivalPosLat="0.00" arrivalSpeed="14.07" duration="80.00" routeLength="971.68" waitingTime="0.00" waitingCount="0" stopTime="0.00" timeLoss="10.75" rerouteNo="0" devices="tripinfo_V90.0 battery_V90.0" vType="DEFAULT_VEHTYPE" speedFactor="1.02" vaporized=""/>
    <tripinfo id="V12.0" depart="0.00" departLane="-gneE117_0" departPos="5.10" departPosLat="0.00" departSpeed="0.00" departDelay="0.00" arrival="90.00" arrivalLane="-gneE68_0" arrivalPos="235.60" arrivalPosLat="0.00" arrivalSpeed="13.14" duration="90.00" routeLength="1010.22" waitingTime="0.00" waitingCount="0" stopTime="0.00" timeLoss="18.22" rerouteNo="0" devices="tripinfo_V12.0 battery_V12.0" vType="DEFAULT_VEHTYPE" speedFactor="1.03" vaporized=""/>
    <tripinfo id="V75.0" depart="3.00" departLane="-gneE63_0" departPos="5.10" departPosLat="0.00" departSpeed="0.00" departDelay="3.00" arrival="90.00" arrivalLane="gneE65_0" arrivalPos="235.60" arrivalPosLat="0.00" arrivalSpeed="13.08" duration="87.00" routeLength="977.81" waitingTime="0.00" waitingCount="0" stopTime="0.00" timeLoss="17.62" rerouteNo="0" devices="tripinfo_V75.0 battery_V75.0" vType="DEFAULT_VEHTYPE" speedFactor="1.06" vaporized=""/>
    <tripinfo id="V42.0" depart="0.00" departLane="gneE107_0" departPos="5.10" departPosLat="0.00" departSpeed="0.00" departDelay="0.00" arrival="91.00" arrivalLane="-gneE107_0" arrivalPos="20.15" arrivalPosLat="0.00" arrivalSpeed="13.27" duration="91.00" routeLength="1039.68" waitingTime="0.00" waitingCount="0" stopTime="0.00" timeLoss="25.19" rerouteNo="0" devices="tripinfo_V42.0 battery_V42.0" vType="DEFAULT_VEHTYPE" speedFactor="1.18" vaporized=""/>
    <tripinfo id="V2.0" depart="0.00" departLane="gneE106_0" departPos="5.10" departPosLat="0.00" departSpeed="0.00" departDelay="0.00" arrival="92.00" arrivalLane="gneE48_0" arrivalPos="235.60" arrivalPosLat="0.00" arrivalSpeed="9.43" duration="92.00" routeLength="973.43" waitingTime="1.00" waitingCount="1" stopTime="0.00" timeLoss="22.77" rerouteNo="0" devices="tripinfo_V2.0 battery_V2.0" vType="DEFAULT_VEHTYPE" speedFactor="1.05" vaporized=""/>
    <tripinfo id="V86.0" depart="3.00" departLane="-gneE57_0" departPos="5.10" departPosLat="0.00" departSpeed="0.00" departDelay="3.00" arrival="92.00" arrivalLane="gneE60_0" arrivalPos="239.60" arrivalPosLat="0.00" arrivalSpeed="13.09" duration="89.00" routeLength="972.91" waitingTime="0.00" waitingCount="0" stopTime="0.00" timeLoss="15.25" rerouteNo="0" devices="tripinfo_V86.0 battery_V86.0" vType="DEFAULT_VEHTYPE" speedFactor="0.98" vaporized=""/>
    <tripinfo id="V78.0" depart="0.00" departLane="-gneE65_0" departPos="5.10" departPosLat="0.00" departSpeed="0.00" departDelay="0.00" arrival="97.00" arrivalLane="-gneE48_0" arrivalPos="235.60" arrivalPosLat="0.00" arrivalSpeed="7.48" duration="97.00" routeLength="980.08" waitingTime="7.00" waitingCount="1" stopTime="0.00" timeLoss="27.19" rerouteNo="0" devices="tripinfo_V78.0 battery_V78.0" vType="DEFAULT_VEHTYPE" speedFactor="1.03" vaporized=""/>
    <tripinfo id="V50.0" depart="0.00" departLane="gneE79_0" departPos="5.10" departPosLat="0.00" departSpeed="0.00" departDelay="0.00" arrival="98.00" arrivalLane="gneE63_0" arrivalPos="239.60" arrivalPosLat="0.00" arrivalSpeed="13.54" duration="98.00" routeLength="1194.32" waitingTime="0.00" waitingCount="0" stopTime="0.00" timeLoss="9.97" rerouteNo="0" devices="tripinfo_V50.0 battery_V50.0" vType="DEFAULT_VEHTYPE" speedFactor="1.00" vaporized=""/>
    <tripinfo id="V11.0" depart="0.00" departLane="-gneE51_0" departPos="5.10" departPosLat="0.00" departSpeed="0.00" departDelay="0.00" arrival="100.00" arrivalLane="gneE48_0" arrivalPos="235.60" arrivalPosLat="0.00" arrivalSpeed="14.95" duration="100.00" routeLength="1223.94" waitingTime="0.00" waitingCount="0" stopTime="0.00" timeLoss="16.38" rerouteNo="0" devices="tripinfo_V11.0 battery_V11.0" vType="DEFAULT_VEHTYPE" speedFactor="1.08" vaporized=""/>
    <tripinfo id="V57.0" depart="9.00" departLane="gneE47_0" departPos="5.10" departPosLat="0.00" departSpeed="0.00" departDelay="9.00" arrival="101.00" arrivalLane="-gneE79_0" arrivalPos="200.80" arrivalPosLat="0.00" arrivalSpeed="14.28" duration="92.00" routeLength="940.07" waitingTime="0.00" waitingCount="0" stopTime="0.00" timeLoss="28.10" rerouteNo="0" devices="tripinfo_V57.0 battery_V57.0" vType="DEFAULT_VEHTYPE" speedFactor="1.10" vaporized=""/>
    <tripinfo id="V69.0" depart="0.00" departLane="gneE78_0" departPos="5.10" departPosLat="0.00" departSpeed="0.00" departDelay="0.00" arrival="101.00" arrivalLane="gneE46_0" arrivalPos="239.59" arrivalPosLat="0.00" arrivalSpeed="11.54" duration="101.00" routeLength="979.96" waitingTime="5.00" waitingCount="1" stopTime="0.00" timeLoss="20.45" rerouteNo="0" devices="tripinfo_V69.0 battery_V69.0" vType="DEFAULT_VEHTYPE" speedFactor="0.91" vaporized=""/>
    <tripinfo id="V92.0" depart="6.00" departLane="-gneE125_0" departPos="5.10" departPosLat="0.00" departSpeed="0.00" departDelay="6.00" arrival="102.00" arrivalLane="-gneE107_0" arrivalPos="20.15" arrivalPosLat="0.00" arrivalSpeed="10.79" duration="96.00" routeLength="555.51" waitingTime="25.00" waitingCount="3" stopTime="0.00" timeLoss="46.93" rerouteNo="0" devices="tripinfo_V92.0 battery_V92.0" vType="DEFAULT_VEHTYPE" speedFactor="0.83" vaporized=""/>
    <tripinfo id="V53.0" depart="9.00" departLane="-gneE61_0" departPos="5.10" departPosLat="0.00" departSpeed="0.00" departDelay="9.00" arrival="103.00" arrivalLane="gneE107_0" arrivalPos="20.15" arrivalPosLat="0.00" arrivalSpeed="11.36" duration="94.00" routeLength="977.96" waitingTime="0.00" waitingCount="0" stopTime="0.00" timeLoss="9.48" rerouteNo="0" devices="tripinfo_V53.0 battery_V53.0" vType="DEFAULT_VEHTYPE" speedFactor="0.85" vaporized=""/>
    <tripinfo id="V76.0" depart="0.00" departLane="-gneE67_0" departPos="5.10" departPosLat="0.00" departSpeed="0.00" departDelay="0.00" arrival="106.00" arrivalLane="-gneE59_0" arrivalPos="235.60" arrivalPosLat="0.00" arrivalSpeed="12.30" duration="106.00" routeLength="980.90" waitingTime="4.00" waitingCount="2" stopTime="0.00" timeLoss="30.43" rerouteNo="0" devices="tripinfo_V76.0 battery_V76.0" vType="DEFAULT_VEHTYPE" speedFactor="0.96" vaporized=""/>
    <tripinfo id="V88.0" depart="6.00" departLane="gneE61_0" departPos="5.10" departPosLat="0.00" departSpeed="0.00" departDelay="6.00" arrival="106.00" arrivalLane="-gneE64_0" arrivalPos="239.60" arrivalPosLat="0.00" arrivalSpeed="13.95" duration="100.00" routeLength="1232.07" waitingTime="0.00" waitingCount="0" stopTime="0.00" timeLoss="12.44" rerouteNo="0" devices="tripinfo_V88.0 battery_V88.0" vType="DEFAULT_VEHTYPE" speedFactor="1.04" vaporized=""/>
    <tripinfo id="V54.0" depart="3.00" departLane="gneE59_0" departPos="5.10" departPosLat="0.00" departSpeed="0.00" departDelay="3.00" arrival="107.00" arrivalLane="gneE119_0" arrivalPos="202.94" arrivalPosLat="0.00" arrivalSpeed="11.20" duration="104.00" routeLength="979.33" waitingTime="2.00" waitingCount="2" stopTime="0.00" timeLoss="19.37" rerouteNo="0" devices="tripinfo_V54.0 battery_V54.0" vType="DEFAULT_VEHTYPE" speedFactor="0.85" vaporized=""/>
    <tripinfo id="V71.0" depart="6.00" departLane="gneE106_0" departPos="5.10" departPosLat="0.00" departSpeed="0.00" departDelay="6.00" arrival="107.00" arrivalLane="gneE48_0" arrivalPos="235.60" arrivalPosLat="0.00" arrivalSpeed="14.16" duration="101.00" routeLength="973.43" waitingTime="11.00" waitingCount="2" stopTime="0.00" timeLoss="30.34" rerouteNo="0" devices="tripinfo_V71.0 battery_V71.0" vType="DEFAULT_VEHTYPE" speedFactor="1.02" vaporized=""/>
    <tripinfo id="V41.0" depart="0.00" departLane="-gneE68_0" departPos="5.10" departPosLat="0.00" departSpeed="0.00" departDelay="0.00" arrival="108.00" arrivalLane="-gneE127_0" arrivalPos="204.53" arrivalPosLat="0.00" arrivalSpeed="12.86" duration="108.00" routeLength="1218.39" waitingTime="0.00" waitingCount="0" stopTime="0.00" timeLoss="15.37" rerouteNo="0" devices="tripinfo_V41.0 battery_V41.0" vType="DEFAULT_VEHTYPE" speedFactor="0.97" vaporized=""/>
    <tripinfo id="V7.0" depart="5.00" departLane="-gneE50_0" departPos="5.10" departPosLat="0.00" departSpeed="0.00" departDelay="5.00" arrival="108.00" arrivalLane="-gneE68_0" arrivalPos="235.60" arrivalPosLat="0.00" arrivalSpeed="12.22" duration="103.00" routeLength="969.76" waitingTime="4.00" waitingCount="2" stopTime="0.00" timeLoss="24.31" rerouteNo="0" devices="tripinfo_V7.0 battery_V7.0" vType="DEFAULT_VEHTYPE" speedFactor="0.91" vaporized=""/>
    <tripinfo id="V24.0" depart="0.00" departLane="-gneE79_0" departPos="5.10" departPosLat="0.00" departSpeed="0.00" departDelay="0.00" arrival="110.00" arrivalLane="-gneE51_0" arrivalPos="235.60" arrivalPosLat="0.00" arrivalSpeed="12.86" duration="110.00" routeLength="1215.93" waitingTime="0.00" waitingCount="0" stopTime="0.00" timeLoss="14.75" rerouteNo="0" devices="tripinfo_V24.0 battery_V24.0" vType="DEFAULT_VEHTYPE" speedFactor="0.94" vaporized=""/>
    <tripinfo id="V58.0" depart="3.00" departLane="-gneE125_0" departPos="5.10" departPosLat="0.00" departSpeed="0.00" departDelay="3.00" arrival="111.00" arrivalLane="-gneE67_0" arrivalPos="239.60" arrivalPosLat="0.00" arrivalSpeed="13.71" duration="108.00" routeLength="770.94" waitingTime="27.00" waitingCount="2" stopTime="0.00" timeLoss="49.87" rerouteNo="0" devices="tripinfo_V58.0 battery_V58.0" vType="DEFAULT_VEHTYPE" speedFactor="1.00" vaporized=""/>
    <tripinfo id="V44.0" depart="0.00" departLane="gneE46_0" departPos="5.10" departPosLat="0.00" departSpeed="0.00" departDelay="0.00" arrival="112.00" arrivalLane="-gneE68_0" arrivalPos="235.60" arrivalPosLat="0.00" arrivalSpeed="12.12" duration="112.00" routeLength="1234.90" waitingTime="0.00" waitingCount="0" stopTime="0.00" timeLoss="11.22" rerouteNo="0" devices="tripinfo_V44.0 battery_V44.0" vType="DEFAULT_VEHTYPE" speedFactor="0.90" vaporized=""/>
    <tripinfo id="V31.0" depart="0.00" departLane="-gneE50_0" departPos="5.10" departPosLat="0.00" departSpeed="0.00" departDelay="0.00" arrival="118.00" arrivalLane="gneE51_0" arrivalPos="235.60" arrivalPosLat="0.00" arrivalSpeed="11.57" duration="118.00" routeLength="1214.04" waitingTime="0.00" waitingCount="0" stopTime="0.00" timeLoss="14.40" rerouteNo="0" devices="tripinfo_V31.0 battery_V31.0" vType="DEFAULT_VEHTYPE" speedFactor="0.87" vaporized=""/>
    <tripinfo id="V48.0" depart="0.00" departLane="gneE69_0" departPos="5.10" departPosLat="0.00" departSpeed="0.00" departDelay="0.00" arrival="118.00" arrivalLane="-gneE46_0" arrivalPos="239.59" arrivalPosLat="0.00" arrivalSpeed="13.74" duration="118.00" routeLength="1475.31" waitingTime="0.00" waitingCount="0" stopTime="0.00" timeLoss="14.27" rerouteNo="0" devices="tripinfo_V48.0 battery_V48.0" vType="DEFAULT_VEHTYPE" speedFactor="1.04" vaporized=""/>
    <tripinfo id="V10.0" depart="0.00" departLane="gneE61_0" departPos="5.10" departPosLat="0.00" departSpeed="0.00" departDelay="0.00" arrival="119.00" arrivalLane="-gneE67_0" arrivalPos="239.60" arrivalPosLat="0.00" arrivalSpeed="13.61" duration="119.00" routeLength="1482.15" waitingTime="0.00" waitingCount="0" stopTime="0.00" timeLoss="11.08" rerouteNo="0" devices="tripinfo_V10.0 battery_V10.0" vType="DEFAULT_VEHTYPE" speedFactor="1.01" vaporized=""/>
    <tripinfo id="V34.0" depart="3.00" departLane="-gneE119_0" departPos="5.10" departPosLat="0.00" departSpeed="0.00" departDelay="3.00" arrival="119.00" arrivalLane="gneE119_0" arrivalPos="202.94" arrivalPosLat="0.00" arrivalSpeed="15.20" duration="116.00" routeLength="1464.97" waitingTime="0.00" waitingCount="0" stopTime="0.00" timeLoss="20.73" rerouteNo="0" devices="tripinfo_V34.0 battery_V34.0" vType="DEFAULT_VEHTYPE" speedFactor="1.13" vaporized=""/>
    <tripinfo id="V67.0" depart="0.00" departLane="-gneE106_0" departPos="5.10" departPosLat="0.00" departSpeed="0.00" departDelay="0.00" arrival="119.00" arrivalLane="-gneE61_0" arrivalPos="239.60" arrivalPosLat="0.00" arrivalSpeed="12.37" duration="119.00" routeLength="1186.49" waitingTime="6.00" waitingCount="1" stopTime="0.00" timeLoss="25.10" rerouteNo="0" devices="tripinfo_V67.0 battery_V67.0" vType="DEFAULT_VEHTYPE" speedFactor="0.94" vaporized=""/>
    <tripinfo id="V40.0" depart="3.00" departLane="-gneE61_0" departPos="5.10" departPosLat="0.00" departSpeed="0.00" departDelay="3.00" arrival="120.00" arrivalLane="-gneE117_0" arrivalPos="25.10" arrivalPosLat="0.00" arrivalSpeed="13.75" duration="117.00" routeLength="1226.63" waitingTime="2.00" waitingCount="1" stopTime="0.00" timeLoss="27.57" rerouteNo="0" devices="tripinfo_V40.0 battery_V40.0" vType="DEFAULT_VEHTYPE" speedFactor="1.02" vaporized=""/>
    <tripinfo id="V51.0" depart="6.00" departLane="-gneE51_0" departPos="5.10" departPosLat="0.00" departSpeed="0.00" departDelay="6.00" arrival="121.00" arrivalLane="gneE50_0" arrivalPos="235.60" arrivalPosLat="0.00" arrivalSpeed="11.46" duration="115.00" routeLength="1213.54" waitingTime="0.00" waitingCount="0" stopTime="0.00" timeLoss="13.91" rerouteNo="0" devices="tripinfo_V51.0 battery_V51.0" vType="DEFAULT_VEHTYPE" speedFactor="0.90" vaporized=""/>
    <tripinfo id="V60.0" depart="2.00" departLane="-gneE64_0" departPos="5.10" departPosLat="0.00" departSpeed="0.00" departDelay="2.00" arrival="122.00" arrivalLane="gneE52_0" arrivalPos="235.59" arrivalPosLat="0.00" arrivalSpeed="8.75" duration="120.00" routeLength="1483.16" waitingTime="0.00" waitingCount="0" stopTime="0.00" timeLoss="25.40" rerouteNo="0" devices="tripinfo_V60.0 battery_V60.0" vType="DEFAULT_VEHTYPE" speedFactor="1.14" vaporized=""/>
    <tripinfo id="V63.0" depart="0.00" departLane="gneE65_0" departPos="5.10" departPosLat="0.00" departSpeed="0.00" departDelay="0.00" arrival="122.00" arrivalLane="gneE50_0" arrivalPos="235.60" arrivalPosLat="0.00" arrivalSpeed="13.74" duration="122.00" routeLength="969.55" waitingTime="21.00" waitingCount="4" stopTime="0.00" timeLoss="55.35" rerouteNo="0" devices="tripinfo_V63.0 battery_V63.0" vType="DEFAULT_VEHTYPE" speedFactor="1.08" vaporized=""/>
    <tripinfo id="V72.0" depart="0.00" departLane="gneE71_0" departPos="5.10" departPosLat="0.00" departSpeed="0.00" departDelay="0.00" arrival="122.00" arrivalLane="-gneE65_0" arrivalPos="235.60" arrivalPosLat="0.00" arrivalSpeed="13.09" duration="122.00" routeLength="1468.70" waitingTime="0.00" waitingCount="0" stopTime="0.00" timeLoss="15.39" rerouteNo="0" devices="tripinfo_V72.0 battery_V72.0" vType="DEFAULT_VEHTYPE" speedFactor="1.02" vaporized=""/>
    <tripinfo id="V19.0" depart="0.00" departLane="-gneE125_0" departPos="5.10" departPosLat="0.00" departSpeed="0.00" departDelay="0.00" arrival="123.00" arrivalLane="gneE127_0" arrivalPos="204.53" arrivalPosLat="0.00" arrivalSpeed="13.66" duration="123.00" routeLength="983.21" waitingTime="28.00" waitingCount="2" stopTime="0.00" timeLoss="50.94" rerouteNo="0" devices="tripinfo_V19.0 battery_V19.0" vType="DEFAULT_VEHTYPE" speedFactor="1.03" vaporized=""/>
    <tripinfo id="V45.0" depart="6.00" departLane="-gneE107_0" departPos="5.10" departPosLat="0.00" departSpeed="0.00" departDelay="6.00" arrival="123.00" arrivalLane="gneE57_0" arrivalPos="234.83" arrivalPosLat="0.00" arrivalSpeed="13.05" duration="117.00" routeLength="1227.82" waitingTime="8.00" waitingCount="2" stopTime="0.00" timeLoss="29.14" rerouteNo="0" devices="tripinfo_V45.0 battery_V45.0" vType="DEFAULT_VEHTYPE" speedFactor="1.03" vaporized=""/>
    <tripinfo id="V61.0" depart="0.00" departLane="-gneE63_0" departPos="5.10" departPosLat="0.00" departSpeed="0.00" departDelay="0.00" arrival="123.00" arrivalLane="gneE47_0" arrivalPos="230.60" arrivalPosLat="0.00" arrivalSpeed="14.19" duration="123.00" routeLength="1483.30" waitingTime="0.00" waitingCount="0" stopTime="0.00" timeLoss="16.94" rerouteNo="0" devices="tripinfo_V61.0 battery_V61.0" vType="DEFAULT_VEHTYPE" speedFactor="1.02" vaporized=""/>
    <tripinfo id="V26.0" depart="3.00" departLane="gneE63_0" departPos="5.10" departPosLat="0.00" departSpeed="0.00" departDelay="3.00" arrival="124.00" arrivalLane="gneE52_0" arrivalPos="235.59" arrivalPosLat="0.00" arrivalSpeed="11.96" duration="121.00" routeLength="1471.09" waitingTime="0.00" waitingCount="0" stopTime="0.00" timeLoss="27.08" rerouteNo="0" devices="tripinfo_V26.0 battery_V26.0" vType="DEFAULT_VEHTYPE" speedFactor="1.16" vaporized=""/>
    <tripinfo id="V30.0" depart="3.00" departLane="gneE47_0" departPos="5.10" departPosLat="0.00" departSpeed="0.00" departDelay="3.00" arrival="128.00" arrivalLane="gneE67_0" arrivalPos="239.60" arrivalPosLat="0.00" arrivalSpeed="10.84" duration="125.00" routeLength="1210.05" waitingTime="0.00" waitingCount="0" stopTime="0.00" timeLoss="16.10" rerouteNo="0" devices="tripinfo_V30.0 battery_V30.0" vType="DEFAULT_VEHTYPE" speedFactor="0.83" vaporized=""/>
    <tripinfo id="V59.0" depart="0.00" departLane="gneE57_0" departPos="5.10" departPosLat="0.00" departSpeed="0.00" departDelay="0.00" arrival="128.00" arrivalLane="gneE46_0" arrivalPos="239.59" arrivalPosLat="0.00" arrivalSpeed="12.91" duration="128.00" routeLength="1230.64" waitingTime="18.00" waitingCount="1" stopTime="0.00" timeLoss="36.77" rerouteNo="0" devices="tripinfo_V59.0 battery_V59.0" vType="DEFAULT_VEHTYPE" speedFactor="1.00" vaporized=""/>
    <tripinfo id="V18.0" depart="0.00" departLane="-gneE46_0" departPos="5.10" departPosLat="0.00" departSpeed="0.00" departDelay="0.00" arrival="129.00" arrivalLane="gneE117_0" arrivalPos="25.10" arrivalPosLat="0.00" arrivalSpeed="13.75" duration="129.00" routeLength="1509.06" waitingTime="1.00" waitingCount="1" stopTime="0.00" timeLoss="27.41" rerouteNo="0" devices="tripinfo_V18.0 battery_V18.0" vType="DEFAULT_VEHTYPE" speedFactor="1.09" vaporized=""/>
    <tripinfo id="V98.0" depart="6.00" departLane="-gneE57_0" departPos="5.10" departPosLat="0.00" departSpeed="0.00" departDelay="6.00" arrival="130.00" arrivalLane="-gneE68_0" arrivalPos="235.60" arrivalPosLat="0.00" arrivalSpeed="14.58" duration="124.00" routeLength="1479.92" waitingTime="0.00" waitingCount="0" stopTime="0.00" timeLoss="26.94" rerouteNo="0" devices="tripinfo_V98.0 battery_V98.0" vType="DEFAULT_VEHTYPE" speedFactor="1.12" vaporized=""/>
    <tripinfo id="V99.0" depart="9.00" departLane="-gneE125_0" departPos="5.10" departPosLat="0.00" departSpeed="0.00" departDelay="9.00" arrival="131.00" arrivalLane="gneE127_0" arrivalPos="204.53" arrivalPosLat="0.00" arrivalSpeed="14.05" duration="122.00" routeLength="983.21" waitingTime="19.00" waitingCount="2" stopTime="0.00" timeLoss="55.12" rerouteNo="0" devices="tripinfo_V99.0 battery_V99.0" vType="DEFAULT_VEHTYPE" speedFactor="1.10" vaporized=""/>
    <tripinfo id="V37.0" depart="0.00" departLane="-gneE61_0" departPos="5.10" departPosLat="0.00" departSpeed="0.00" departDelay="0.00" arrival="132.00" arrivalLane="-gneE59_0" arrivalPos="235.60" arrivalPosLat="0.00" arrivalSpeed="15.75" duration="132.00" routeLength="1470.89" waitingTime="10.00" waitingCount="2" stopTime="0.00" timeLoss="37.40" rerouteNo="0" devices="tripinfo_V37.0 battery_V37.0" vType="DEFAULT_VEHTYPE" speedFactor="1.15" vaporized=""/>
    <tripinfo id="V89.0" depart="9.00" departLane="-gneE79_0" departPos="5.10" departPosLat="0.00" departSpeed="0.00" departDelay="9.00" arrival="132.00" arrivalLane="-gneE69_0" arrivalPos="235.60" arrivalPosLat="0.00" arrivalSpeed="13.74" duration="123.00" routeLength="1480.66" waitingTime="0.00" waitingCount="0" stopTime="0.00" timeLoss="15.37" rerouteNo="0" devices="tripinfo_V89.0 battery_V89.0" vType="DEFAULT_VEHTYPE" speedFactor="1.01" vaporized=""/>
    <tripinfo id="V96.0" depart="3.00" departLane="-gneE53_0" departPos="5.10" departPosLat="0.00" departSpeed="0.00" departDelay="3.00" arrival="132.00" arrivalLane="-gneE48_0" arrivalPos="235.60" arrivalPosLat="0.00" arrivalSpeed="8.95" duration="129.00" routeLength="973.78" waitingTime="23.00" waitingCount="2" stopTime="0.00" timeLoss="57.65" rerouteNo="0" devices="tripinfo_V96.0 battery_V96.0" vType="DEFAULT_VEHTYPE" speedFactor="1.01" vaporized=""/>
    <tripinfo id="V14.0" depart="0.00" departLane="gneE49_0" departPos="5.10" departPosLat="0.00" departSpeed="0.00" departDelay="0.00" arrival="133.00" arrivalLane="gneE46_0" arrivalPos="239.59" arrivalPosLat="0.00" arrivalSpeed="13.96" duration="133.00" routeLength="1481.41" waitingTime="1.00" waitingCount="1" stopTime="0.00" timeLoss="28.55" rerouteNo="0" devices="tripinfo_V14.0 battery_V14.0" vType="DEFAULT_VEHTYPE" speedFactor="1.05" vaporized=""/>
    <tripinfo id="V83.0" depart="3.00" departLane="gneE57_0" departPos="5.10" departPosLat="0.00" departSpeed="0.00" departDelay="3.00" arrival="133.00" arrivalLane="gneE59_0" arrivalPos="235.60" arrivalPosLat="0.00" arrivalSpeed="9.22" duration="130.00" routeLength="1229.09" waitingTime="17.00" waitingCount="1" stopTime="0.00" timeLoss="40.68" rerouteNo="0" devices="tripinfo_V83.0 battery_V83.0" vType="DEFAULT_VEHTYPE" speedFactor="1.02" vaporized=""/>