<?xml version="1.0" encoding="UTF-8"?>

<!-- generated on 04/23/21 18:15:21 by Eclipse SUMO sumo Version v1_8_0+1742-ceeb7fe3f3
<configuration xmlns:xsi="http://www.w3.org/2001/XMLSchema-instance" xsi:noNamespaceSchemaLocation="http://sumo.dlr.de/xsd/sumoConfiguration.xsd">

    <input>
        <net-file value="data/EVGrid.net.xml"/>
        <route-files value="data/electricvehicles.rou.xml,data/randroutes.rou.xml"/>
        <additional-files value="data/EVGrid_additionals.add.xml"/>
    </input>

    <output>
        <battery-output value="data/battery.out.xml"/>
        <battery-output.precision value="4"/>
        <chargingstations-output value="data/EVGrid_chargingstations.xml"/>
        <summary-output value="data/summary-overview.xml"/>
        <tripinfo-output value="tripinfo.xml"/>
    </output>

    <processing>
        <lateral-resolution value="1"/>
    </processing>

    <report>
        <no-warnings value="true"/>
    </report>

    <battery>
        <device.battery.probability value="1"/>
    </battery>

    <traci_server>
        <remote-port value="52164"/>
    </traci_server>

    <gui_only>
        <gui-settings-file value="data/gui-settings.cfg"/>
    </gui_only>

</configuration>
-->

<tripinfos xmlns:xsi="http://www.w3.org/2001/XMLSchema-instance" xsi:noNamespaceSchemaLocation="http://sumo.dlr.de/xsd/tripinfo_file.xsd">
    <tripinfo id="V68.0" depart="2.00" departLane="-gneE65_0" departPos="5.10" departPosLat="0.00" departSpeed="0.00" departDelay="2.00" arrival="26.00" arrivalLane="-gneE65_0" arrivalPos="235.60" arrivalPosLat="0.00" arrivalSpeed="11.34" duration="24.00" routeLength="230.50" waitingTime="0.00" waitingCount="0" stopTime="0.00" timeLoss="4.37" rerouteNo="0" devices="tripinfo_V68.0 battery_V68.0" vType="DEFAULT_VEHTYPE" speedFactor="0.88" vaporized=""/>
    <tripinfo id="EV_0" depart="6.00" departLane="-gneE57_0" departPos="5.10" departPosLat="0.00" departSpeed="0.00" departDelay="5.00" arrival="38.00" arrivalLane="-gneE107_0" arrivalPos="20.15" arrivalPosLat="0.00" arrivalSpeed="9.42" duration="32.00" routeLength="262.45" waitingTime="0.00" waitingCount="0" stopTime="0.00" timeLoss="13.12" rerouteNo="1" devices="tripinfo_EV_0 battery_EV_0" vType="electricvehicle" speedFactor="1.06" vaporized=""/>
    <tripinfo id="EV_10" depart="11.00" departLane="-gneE125_0" departPos="5.10" departPosLat="0.00" departSpeed="0.00" departDelay="0.00" arrival="42.00" arrivalLane="-gneE68_0" arrivalPos="235.60" arrivalPosLat="0.00" arrivalSpeed="12.96" duration="31.00" routeLength="267.36" waitingTime="0.00" waitingCount="0" stopTime="0.00" timeLoss="9.72" rerouteNo="1" devices="tripinfo_EV_10 battery_EV_10" vType="electricvehicle" speedFactor="0.94" vaporized=""/>
    <tripinfo id="V62.0" depart="0.00" departLane="gneE68_0" departPos="5.10" departPosLat="0.00" departSpeed="0.00" departDelay="0.00" arrival="50.00" arrivalLane="-gneE65_0" arrivalPos="235.60" arrivalPosLat="0.00" arrivalSpeed="12.82" duration="50.00" routeLength="480.29" waitingTime="3.00" waitingCount="1" stopTime="0.00" timeLoss="12.93" rerouteNo="0" devices="tripinfo_V62.0 battery_V62.0" vType="DEFAULT_VEHTYPE" speedFactor="0.97" vaporized=""/>
    <tripinfo id="V17.0" depart="0.00" departLane="-gneE125_0" departPos="5.10" departPosLat="0.00" departSpeed="0.00" departDelay="0.00" arrival="52.00" arrivalLane="gneE49_0" arrivalPos="235.60" arrivalPosLat="0.00" arrivalSpeed="10.93" duration="52.00" routeLength="511.99" waitingTime="0.00" waitingCount="0" stopTime="0.00" timeLoss="6.74" rerouteNo="0" devices="tripinfo_V17.0 battery_V17.0" vType="DEFAULT_VEHTYPE" speedFactor="0.86" vaporized=""/>
    <tripinfo id="V85.0" depart="9.00" departLane="gneE48_0" departPos="5.10" departPosLat="0.00" departSpeed="0.00" departDelay="9.00" arrival="53.00" arrivalLane="gneE68_0" arrivalPos="235.60" arrivalPosLat="0.00" arrivalSpeed="15.48" duration="44.00" routeLength="475.13" waitingTime="0.00" waitingCount="0" stopTime="0.00" timeLoss="13.05" rerouteNo="0" devices="tripinfo_V85.0 battery_V85.0" vType="DEFAULT_VEHTYPE" speedFactor="1.15" vaporized=""/>
    <tripinfo id="V59.0" depart="0.00" departLane="gneE59_0" departPos="5.10" departPosLat="0.00" departSpeed="0.00" departDelay="0.00" arrival="59.00" arrivalLane="gneE68_0" arrivalPos="235.60" arrivalPosLat="0.00" arrivalSpeed="13.54" duration="59.00" routeLength="480.50" waitingTime="15.00" waitingCount="1" stopTime="0.00" timeLoss="24.26" rerouteNo="0" devices="tripinfo_V59.0 battery_V59.0" vType="DEFAULT_VEHTYPE" speedFactor="1.00" vaporized=""/>
    <tripinfo id="V28.0" depart="0.00" departLane="gneE71_0" departPos="5.10" departPosLat="0.00" departSpeed="0.00" departDelay="0.00" arrival="61.00" arrivalLane="gneE63_0" arrivalPos="239.60" arrivalPosLat="0.00" arrivalSpeed="13.78" duration="61.00" routeLength="729.13" waitingTime="0.00" waitingCount="0" stopTime="0.00" timeLoss="7.87" rerouteNo="0" devices="tripinfo_V28.0 battery_V28.0" vType="DEFAULT_VEHTYPE" speedFactor="1.01" vaporized=""/>
    <tripinfo id="V82.0" depart="0.00" departLane="-gneE68_0" departPos="5.10" departPosLat="0.00" departSpeed="0.00" departDelay="0.00" arrival="61.00" arrivalLane="gneE70_0" arrivalPos="229.76" arrivalPosLat="0.00" arrivalSpeed="13.54" duration="61.00" routeLength="719.29" waitingTime="0.00" waitingCount="0" stopTime="0.00" timeLoss="7.78" rerouteNo="0" devices="tripinfo_V82.0 battery_V82.0" vType="DEFAULT_VEHTYPE" speedFactor="1.00" vaporized=""/>
    <tripinfo id="V93.0" depart="3.00" departLane="gneE79_0" departPos="5.10" departPosLat="0.00" departSpeed="0.00" departDelay="3.00" arrival="63.00" arrivalLane="gneE71_0" arrivalPos="235.60" arrivalPosLat="0.00" arrivalSpeed="12.55" duration="60.00" routeLength="695.70" waitingTime="0.00" waitingCount="0" stopTime="0.00" timeLoss="5.48" rerouteNo="0" devices="tripinfo_V93.0 battery_V93.0" vType="DEFAULT_VEHTYPE" speedFactor="0.92" vaporized=""/>
    <tripinfo id="V57.0" depart="0.00" departLane="gneE64_0" departPos="5.10" departPosLat="0.00" departSpeed="0.00" departDelay="0.00" arrival="65.00" arrivalLane="-gneE69_0" arrivalPos="235.60" arrivalPosLat="0.00" arrivalSpeed="8.46" duration="65.00" routeLength="479.13" waitingTime="16.00" waitingCount="2" stopTime="0.00" timeLoss="32.47" rerouteNo="0" devices="tripinfo_V57.0 battery_V57.0" vType="DEFAULT_VEHTYPE" speedFactor="1.10" vaporized=""/>
    <tripinfo id="V1.0" depart="0.00" departLane="-gneE70_0" departPos="5.10" departPosLat="0.00" departSpeed="0.00" departDelay="0.00" arrival="69.00" arrivalLane="gneE125_0" arrivalPos="18.68" arrivalPosLat="0.00" arrivalSpeed="10.16" duration="69.00" routeLength="756.22" waitingTime="0.00" waitingCount="0" stopTime="0.00" timeLoss="9.19" rerouteNo="0" devices="tripinfo_V1.0 battery_V1.0" vType="DEFAULT_VEHTYPE" speedFactor="0.94" vaporized=""/>
    <tripinfo id="V75.0" depart="3.00" departLane="-gneE71_0" departPos="5.10" departPosLat="0.00" departSpeed="0.00" departDelay="3.00" arrival="69.00" arrivalLane="-gneE50_0" arrivalPos="235.60" arrivalPosLat="0.00" arrivalSpeed="7.47" duration="66.00" routeLength="480.29" waitingTime="18.00" waitingCount="1" stopTime="0.00" timeLoss="32.27" rerouteNo="0" devices="tripinfo_V75.0 battery_V75.0" vType="DEFAULT_VEHTYPE" speedFactor="1.06" vaporized=""/>
    <tripinfo id="V4.0" depart="2.00" departLane="-gneE51_0" departPos="5.10" departPosLat="0.00" departSpeed="0.00" departDelay="2.00" arrival="71.00" arrivalLane="-gneE106_0" arrivalPos="198.76" arrivalPosLat="0.00" arrivalSpeed="13.47" duration="69.00" routeLength="718.92" waitingTime="1.00" waitingCount="1" stopTime="0.00" timeLoss="14.95" rerouteNo="0" devices="tripinfo_V4.0 battery_V4.0" vType="DEFAULT_VEHTYPE" speedFactor="0.99" vaporized=""/>
    <tripinfo id="V41.0" depart="6.00" departLane="-gneE79_0" departPos="5.10" departPosLat="0.00" departSpeed="0.00" departDelay="6.00" arrival="72.00" arrivalLane="-gneE53_0" arrivalPos="239.61" arrivalPosLat="0.00" arrivalSpeed="12.56" duration="66.00" routeLength="721.31" waitingTime="0.00" waitingCount="0" stopTime="0.00" timeLoss="11.67" rerouteNo="0" devices="tripinfo_V41.0 battery_V41.0" vType="DEFAULT_VEHTYPE" speedFactor="0.97" vaporized=""/>
    <tripinfo id="V97.0" depart="6.00" departLane="gneE64_0" departPos="5.10" departPosLat="0.00" departSpeed="0.00" departDelay="6.00" arrival="73.00" arrivalLane="-gneE69_0" arrivalPos="235.60" arrivalPosLat="0.00" arrivalSpeed="4.48" duration="67.00" routeLength="479.13" waitingTime="9.00" waitingCount="1" stopTime="0.00" timeLoss="27.89" rerouteNo="0" devices="tripinfo_V97.0 battery_V97.0" vType="DEFAULT_VEHTYPE" speedFactor="0.91" vaporized=""/>
    <tripinfo id="EV_70" depart="71.00" departLane="gneE117_0" departPos="5.10" departPosLat="0.00" departSpeed="0.00" departDelay="0.00" arrival="79.00" arrivalLane="gneE117_0" arrivalPos="25.10" arrivalPosLat="0.00" arrivalSpeed="5.39" duration="8.00" routeLength="20.00" waitingTime="0.00" waitingCount="0" stopTime="0.00" timeLoss="5.99" rerouteNo="0" devices="tripinfo_EV_70 battery_EV_70" vType="electricvehicle" speedFactor="0.89" vaporized=""/>
    <tripinfo id="V35.0" depart="3.00" departLane="-gneE117_0" departPos="5.10" departPosLat="0.00" departSpeed="0.00" departDelay="3.00" arrival="81.00" arrivalLane="-gneE107_0" arrivalPos="20.15" arrivalPosLat="0.00" arrivalSpeed="12.34" duration="78.00" routeLength="796.19" waitingTime="0.00" waitingCount="0" stopTime="0.00" timeLoss="14.97" rerouteNo="0" devices="tripinfo_V35.0 battery_V35.0" vType="DEFAULT_VEHTYPE" speedFactor="0.93" vaporized=""/>
    <tripinfo id="V56.0" depart="0.00" departLane="-gneE47_0" departPos="5.10" departPosLat="0.00" departSpeed="0.00" departDelay="0.00" arrival="81.00" arrivalLane="gneE53_0" arrivalPos="239.61" arrivalPosLat="0.00" arrivalSpeed="12.85" duration="81.00" routeLength="975.81" waitingTime="0.00" waitingCount="0" stopTime="0.00" timeLoss="9.64" rerouteNo="0" devices="tripinfo_V56.0 battery_V56.0" vType="DEFAULT_VEHTYPE" speedFactor="1.02" vaporized=""/>
    <tripinfo id="V38.0" depart="0.00" departLane="-gneE79_0" departPos="5.10" departPosLat="0.00" departSpeed="0.00" departDelay="0.00" arrival="82.00" arrivalLane="-gneE125_0" arrivalPos="18.68" arrivalPosLat="0.00" arrivalSpeed="13.72" duration="82.00" routeLength="976.14" waitingTime="0.00" waitingCount="0" stopTime="0.00" timeLoss="10.82" rerouteNo="0" devices="tripinfo_V38.0 battery_V38.0" vType="DEFAULT_VEHTYPE" speedFactor="1.01" vaporized=""/>
    <tripinfo id="V39.0" depart="0.00" departLane="gneE107_0" departPos="5.10" departPosLat="0.00" departSpeed="0.00" departDelay="0.00" arrival="86.00" arrivalLane="-gneE49_0" arrivalPos="235.60" arrivalPosLat="0.00" arrivalSpeed="11.18" duration="86.00" routeLength="756.90" waitingTime="20.00" waitingCount="1" stopTime="0.00" timeLoss="37.20" rerouteNo="0" devices="tripinfo_V39.0 battery_V39.0" vType="DEFAULT_VEHTYPE" speedFactor="1.17" vaporized=""/>
    <tripinfo id="V91.0" depart="0.00" departLane="-gneE49_0" departPos="5.10" departPosLat="0.00" departSpeed="0.00" departDelay="0.00" arrival="88.00" arrivalLane="gneE127_0" arrivalPos="204.53" arrivalPosLat="0.00" arrivalSpeed="11.67" duration="88.00" routeLength="946.56" waitingTime="0.00" waitingCount="0" stopTime="0.00" timeLoss="10.30" rerouteNo="0" devices="tripinfo_V91.0 battery_V91.0" vType="DEFAULT_VEHTYPE" speedFactor="0.89" vaporized=""/>
    <tripinfo id="EV_20" depart="22.00" departLane="-gneE107_0" departPos="5.10" departPosLat="0.00" departSpeed="0.00" departDelay="1.00" arrival="88.00" arrivalLane="gneE116_0" arrivalPos="6.90" arrivalPosLat="0.00" arrivalSpeed="2.97" duration="66.00" routeLength="56.68" waitingTime="2.00" waitingCount="1" stopTime="43.00" timeLoss="17.33" rerouteNo="1" devices="tripinfo_EV_20 battery_EV_20" vType="electricvehicle" speedFactor="1.01" vaporized=""/>
    <tripinfo id="V22.0" depart="0.00" departLane="-gneE57_0" departPos="5.10" departPosLat="0.00" departSpeed="0.00" departDelay="0.00" arrival="94.00" arrivalLane="gneE47_0" arrivalPos="230.60" arrivalPosLat="0.00" arrivalSpeed="11.65" duration="94.00" routeLength="729.52" waitingTime="25.00" waitingCount="1" stopTime="0.00" timeLoss="35.99" rerouteNo="0" devices="tripinfo_V22.0 battery_V22.0" vType="DEFAULT_VEHTYPE" speedFactor="0.93" vaporized=""/>
    <tripinfo id="V84.0" depart="6.00" departLane="gneE67_0" departPos="5.10" departPosLat="0.00" departSpeed="0.00" departDelay="6.00" arrival="96.00" arrivalLane="-gneE127_0" arrivalPos="204.53" arrivalPosLat="0.00" arrivalSpeed="12.83" duration="90.00" routeLength="971.71" waitingTime="0.00" waitingCount="0" stopTime="0.00" timeLoss="14.86" rerouteNo="0" devices="tripinfo_V84.0 battery_V84.0" vType="DEFAULT_VEHTYPE" speedFactor="0.97" vaporized=""/>
    <tripinfo id="V2.0" depart="0.00" departLane="-gneE117_0" departPos="5.10" departPosLat="0.00" departSpeed="0.00" departDelay="0.00" arrival="97.00" arrivalLane="-gneE65_0" arrivalPos="235.60" arrivalPosLat="0.00" arrivalSpeed="13.46" duration="97.00" routeLength="1012.99" waitingTime="3.00" waitingCount="1" stopTime="0.00" timeLoss="23.97" rerouteNo="0" devices="tripinfo_V2.0 battery_V2.0" vType="DEFAULT_VEHTYPE" speedFactor="1.05" vaporized=""/>
    <tripinfo id="V44.0" depart="3.00" departLane="-gneE57_0" departPos="5.10" departPosLat="0.00" departSpeed="0.00" departDelay="3.00" arrival="98.00" arrivalLane="-gneE51_0" arrivalPos="235.60" arrivalPosLat="0.00" arrivalSpeed="12.19" duration="95.00" routeLength="963.54" waitingTime="0.00" waitingCount="0" stopTime="0.00" timeLoss="15.19" rerouteNo="0" devices="tripinfo_V44.0 battery_V44.0" vType="DEFAULT_VEHTYPE" speedFactor="0.90" vaporized=""/>
    <tripinfo id="V67.0" depart="9.00" departLane="-gneE48_0" departPos="5.10" departPosLat="0.00" departSpeed="0.00" departDelay="9.00" arrival="98.00" arrivalLane="-gneE53_0" arrivalPos="239.61" arrivalPosLat="0.00" arrivalSpeed="12.71" duration="89.00" routeLength="971.32" waitingTime="0.00" waitingCount="0" stopTime="0.00" timeLoss="13.40" rerouteNo="0" devices="tripinfo_V67.0 battery_V67.0" vType="DEFAULT_VEHTYPE" speedFactor="0.94" vaporized=""/>
    <tripinfo id="V92.0" depart="3.00" departLane="-gneE49_0" departPos="5.10" departPosLat="0.00" departSpeed="0.00" departDelay="3.00" arrival="98.00" arrivalLane="-gneE46_0" arrivalPos="239.59" arrivalPosLat="0.00" arrivalSpeed="10.51" duration="95.00" routeLength="979.13" waitingTime="0.00" waitingCount="0" stopTime="0.00" timeLoss="9.30" rerouteNo="0" devices="tripinfo_V92.0 battery_V92.0" vType="DEFAULT_VEHTYPE" speedFactor="0.83" vaporized=""/>
    <tripinfo id="V76.0" depart="11.00" departLane="-gneE51_0" departPos="5.10" departPosLat="0.00" departSpeed="0.00" departDelay="11.00" arrival="100.00" arrivalLane="-gneE79_0" arrivalPos="200.80" arrivalPosLat="0.00" arrivalSpeed="12.89" duration="89.00" routeLength="690.33" waitingTime="19.00" waitingCount="1" stopTime="0.00" timeLoss="36.06" rerouteNo="0" devices="tripinfo_V76.0 battery_V76.0" vType="DEFAULT_VEHTYPE" speedFactor="0.96" vaporized=""/>
    <tripinfo id="V61.0" depart="3.00" departLane="-gneE63_0" departPos="5.10" departPosLat="0.00" departSpeed="0.00" departDelay="3.00" arrival="101.00" arrivalLane="gneE125_0" arrivalPos="18.68" arrivalPosLat="0.00" arrivalSpeed="10.66" duration="98.00" routeLength="1014.95" waitingTime="7.00" waitingCount="1" stopTime="0.00" timeLoss="24.03" rerouteNo="0" devices="tripinfo_V61.0 battery_V61.0" vType="DEFAULT_VEHTYPE" speedFactor="1.02" vaporized=""/>
    <tripinfo id="V14.0" depart="3.00" departLane="-gneE70_0" departPos="5.10" departPosLat="0.00" departSpeed="0.00" departDelay="3.00" arrival="102.00" arrivalLane="-gneE46_0" arrivalPos="239.59" arrivalPosLat="0.00" arrivalSpeed="13.72" duration="99.00" routeLength="1223.29" waitingTime="0.00" waitingCount="0" stopTime="0.00" timeLoss="13.25" rerouteNo="0" devices="tripinfo_V14.0 battery_V14.0" vType="DEFAULT_VEHTYPE" speedFactor="1.05" vaporized=""/>
    <tripinfo id="V20.0" depart="0.00" departLane="-gneE59_0" departPos="5.10" departPosLat="0.00" departSpeed="0.00" departDelay="0.00" arrival="102.00" arrivalLane="gneE70_0" arrivalPos="229.76" arrivalPosLat="0.00" arrivalSpeed="8.36" duration="102.00" routeLength="963.57" waitingTime="6.00" waitingCount="2" stopTime="0.00" timeLoss="38.58" rerouteNo="0" devices="tripinfo_V20.0 battery_V20.0" vType="DEFAULT_VEHTYPE" speedFactor="1.12" vaporized=""/>
    <tripinfo id="V66.0" depart="6.00" departLane="gneE71_0" departPos="5.10" departPosLat="0.00" departSpeed="0.00" departDelay="6.00" arrival="103.00" arrivalLane="gneE64_0" arrivalPos="239.60" arrivalPosLat="0.00" arrivalSpeed="12.56" duration="97.00" routeLength="971.31" waitingTime="6.00" waitingCount="1" stopTime="0.00" timeLoss="25.40" rerouteNo="0" devices="tripinfo_V66.0 battery_V66.0" vType="DEFAULT_VEHTYPE" speedFactor="0.99" vaporized=""/>
    <tripinfo id="V42.0" depart="0.00" departLane="gneE61_0" departPos="5.10" departPosLat="0.00" departSpeed="0.00" departDelay="0.00" arrival="104.00" arrivalLane="gneE70_0" arrivalPos="229.76" arrivalPosLat="0.00" arrivalSpeed="11.31" duration="104.00" routeLength="972.87" waitingTime="9.00" waitingCount="2" stopTime="0.00" timeLoss="42.61" rerouteNo="0" devices="tripinfo_V42.0 battery_V42.0" vType="DEFAULT_VEHTYPE" speedFactor="1.18" vaporized=""/>
    <tripinfo id="V40.0" depart="3.00" departLane="-gneE79_0" departPos="5.10" departPosLat="0.00" departSpeed="0.00" departDelay="3.00" arrival="105.00" arrivalLane="gneE60_0" arrivalPos="239.60" arrivalPosLat="0.00" arrivalSpeed="5.32" duration="102.00" routeLength="1225.30" waitingTime="0.00" waitingCount="0" stopTime="0.00" timeLoss="15.01" rerouteNo="0" devices="tripinfo_V40.0 battery_V40.0" vType="DEFAULT_VEHTYPE" speedFactor="1.02" vaporized=""/>
    <tripinfo id="V43.0" depart="6.00" departLane="-gneE117_0" departPos="5.10" departPosLat="0.00" departSpeed="0.00" departDelay="6.00" arrival="105.00" arrivalLane="gneE117_0" arrivalPos="25.10" arrivalPosLat="0.00" arrivalSpeed="12.56" duration="99.00" routeLength="1042.82" waitingTime="0.00" waitingCount="0" stopTime="0.00" timeLoss="28.71" rerouteNo="0" devices="tripinfo_V43.0 battery_V43.0" vType="DEFAULT_VEHTYPE" speedFactor="1.10" vaporized=""/>
    <tripinfo id="V48.0" depart="0.00" departLane="gneE50_0" departPos="5.10" departPosLat="0.00" departSpeed="0.00" departDelay="0.00" arrival="107.00" arrivalLane="gneE106_0" arrivalPos="198.76" arrivalPosLat="0.00" arrivalSpeed="13.28" duration="107.00" routeLength="942.49" waitingTime="20.00" waitingCount="2" stopTime="0.00" timeLoss="39.73" rerouteNo="0" devices="tripinfo_V48.0 battery_V48.0" vType="DEFAULT_VEHTYPE" speedFactor="1.04" vaporized=""/>
    <tripinfo id="V6.0" depart="9.00" departLane="-gneE117_0" departPos="5.10" departPosLat="0.00" departSpeed="0.00" departDelay="9.00" arrival="109.00" arrivalLane="-gneE47_0" arrivalPos="230.60" arrivalPosLat="0.00" arrivalSpeed="11.39" duration="100.00" routeLength="1003.04" waitingTime="1.00" waitingCount="1" stopTime="0.00" timeLoss="17.45" rerouteNo="0" devices="tripinfo_V6.0 battery_V6.0" vType="DEFAULT_VEHTYPE" speedFactor="0.90" vaporized=""/>
    <tripinfo id="EV_60" depart="61.00" departLane="-gneE119_0" departPos="5.10" departPosLat="0.00" departSpeed="0.00" departDelay="0.00" arrival="111.00" arrivalLane="-gneE70_0" arrivalPos="229.76" arrivalPosLat="0.00" arrivalSpeed="14.18" duration="50.00" routeLength="474.50" waitingTime="0.00" waitingCount="0" stopTime="0.00" timeLoss="16.15" rerouteNo="1" devices="tripinfo_EV_60 battery_EV_60" vType="electricvehicle" speedFactor="1.05" vaporized=""/>
    <tripinfo id="V29.0" depart="0.00" departLane="gneE48_0" departPos="5.10" departPosLat="0.00" departSpeed="0.00" departDelay="0.00" arrival="112.00" arrivalLane="-gneE117_0" arrivalPos="25.10" arrivalPosLat="0.00" arrivalSpeed="13.07" duration="112.00" routeLength="1220.00" waitingTime="2.00" waitingCount="1" stopTime="0.00" timeLoss="19.16" rerouteNo="0" devices="tripinfo_V29.0 battery_V29.0" vType="DEFAULT_VEHTYPE" speedFactor="0.98" vaporized=""/>
    <tripinfo id="V36.0" depart="3.00" departLane="-gneE119_0" departPos="5.10" departPosLat="0.00" departSpeed="0.00" departDelay="3.00" arrival="113.00" arrivalLane="gneE57_0" arrivalPos="234.83" arrivalPosLat="0.00" arrivalSpeed="15.73" duration="110.00" routeLength="1213.62" waitingTime="8.00" waitingCount="1" stopTime="0.00" timeLoss="34.52" rerouteNo="0" devices="tripinfo_V36.0 battery_V36.0" vType="DEFAULT_VEHTYPE" speedFactor="1.18" vaporized=""/>
    <tripinfo id="V52.0" depart="15.00" departLane="-gneE61_0" departPos="5.10" departPosLat="0.00" departSpeed="0.00" departDelay="15.00" arrival="115.00" arrivalLane="-gneE107_0" arrivalPos="20.15" arrivalPosLat="0.00" arrivalSpeed="11.64" duration="100.00" routeLength="1008.21" waitingTime="0.00" waitingCount="0" stopTime="0.00" timeLoss="13.26" rerouteNo="0" devices="tripinfo_V52.0 battery_V52.0" vType="DEFAULT_VEHTYPE" speedFactor="0.88" vaporized=""/>
    <tripinfo id="V15.0" depart="0.00" departLane="gneE67_0" departPos="5.10" departPosLat="0.00" departSpeed="0.00" departDelay="0.00" arrival="117.00" arrivalLane="gneE119_0" arrivalPos="202.94" arrivalPosLat="0.00" arrivalSpeed="12.01" duration="117.00" routeLength="1228.17" waitingTime="0.00" waitingCount="0" stopTime="0.00" timeLoss="15.55" rerouteNo="0" devices="tripinfo_V15.0 battery_V15.0" vType="DEFAULT_VEHTYPE" speedFactor="0.89" vaporized=""/>
    <tripinfo id="V99.0" depart="6.00" departLane="gneE79_0" departPos="5.10" departPosLat="0.00" departSpeed="0.00" departDelay="6.00" arrival="119.00" arrivalLane="gneE67_0" arrivalPos="239.60" arrivalPosLat="0.00" arrivalSpeed="14.45" duration="113.00" routeLength="1180.46" waitingTime="11.00" waitingCount="1" stopTime="0.00" timeLoss="33.92" rerouteNo="0" devices="tripinfo_V99.0 battery_V99.0" vType="DEFAULT_VEHTYPE" speedFactor="1.10" vaporized=""/>
    <tripinfo id="V72.0" depart="0.00" departLane="-gneE64_0" departPos="5.10" departPosLat="0.00" departSpeed="0.00" departDelay="0.00" arrival="121.00" arrivalLane="-gneE78_0" arrivalPos="26.81" arrivalPosLat="0.00" arrivalSpeed="14.19" duration="121.00" routeLength="1481.62" waitingTime="0.00" waitingCount="0" stopTime="0.00" timeLoss="15.00" rerouteNo="0" devices="tripinfo_V72.0 battery_V72.0" vType="DEFAULT_VEHTYPE" speedFactor="1.02" vaporized=""/>
    <tripinfo id="V32.0" depart="6.00" departLane="-gneE61_0" departPos="5.10" departPosLat="0.00" departSpeed="0.00" departDelay="6.00" arrival="122.00" arrivalLane="-gneE106_0" arrivalPos="198.76" arrivalPosLat="0.00" arrivalSpeed="12.69" duration="116.00" routeLength="1220.05" waitingTime="0.00" waitingCount="0" stopTime="0.00" timeLoss="16.50" rerouteNo="0" devices="tripinfo_V32.0 battery_V32.0" vType="DEFAULT_VEHTYPE" speedFactor="0.92" vaporized=""/>
    <tripinfo id="V5.0" depart="5.00" departLane="-gneE51_0" departPos="5.10" departPosLat="0.00" departSpeed="0.00" departDelay="5.00" arrival="122.00" arrivalLane="-gneE67_0" arrivalPos="239.60" arrivalPosLat="0.00" arrivalSpeed="14.12" duration="117.00" routeLength="1228.15" waitingTime="7.00" waitingCount="1" stopTime="0.00" timeLoss="34.09" rerouteNo="0" devices="tripinfo_V5.0 battery_V5.0" vType="DEFAULT_VEHTYPE" speedFactor="1.09" vaporized=""/>
    <tripinfo id="EV_40" depart="41.00" departLane="gneE107_0" departPos="5.10" departPosLat="0.00" departSpeed="0.00" departDelay="0.00" arrival="122.00" arrivalLane="gneE49_0" arrivalPos="235.60" arrivalPosLat="0.00" arrivalSpeed="13.95" duration="81.00" routeLength="518.50" waitingTime="12.00" waitingCount="2" stopTime="0.00" timeLoss="43.90" rerouteNo="1" devices="tripinfo_EV_40 battery_EV_40" vType="electricvehicle" speedFactor="1.03" vaporized=""/>
    <tripinfo id="V50.0" depart="12.00" departLane="-gneE61_0" departPos="5.10" departPosLat="0.00" departSpeed="0.00" departDelay="12.00" arrival="125.00" arrivalLane="-gneE49_0" arrivalPos="235.60" arrivalPosLat="0.00" arrivalSpeed="13.28" duration="113.00" routeLength="1226.26" waitingTime="0.00" waitingCount="0" stopTime="0.00" timeLoss="21.43" rerouteNo="0" devices="tripinfo_V50.0 battery_V50.0" vType="DEFAULT_VEHTYPE" speedFactor="1.00" vaporized=""/>
    <tripinfo id="V18.0" depart="0.00" departLane="-gneE61_0" departPos="5.10" departPosLat="0.00" departSpeed="0.00" departDelay="0.00" arrival="126.00" arrivalLane="-gneE46_0" arrivalPos="239.59" arrivalPosLat="0.00" arrivalSpeed="14.10" duration="126.00" routeLength="1473.62" waitingTime="2.00" waitingCount="1" stopTime="0.00" timeLoss="25.86" rerouteNo="0" devices="tripinfo_V18.0 battery_V18.0" vType="DEFAULT_VEHTYPE" speedFactor="1.09" vaporized=""/>
    <tripinfo id="V53.0" depart="3.00" departLane="gneE48_0" departPos="5.10" departPosLat="0.00" departSpeed="0.00" departDelay="3.00" arrival="126.00" arrivalLane="-gneE51_0" arrivalPos="235.60" arrivalPosLat="0.00" arrivalSpeed="11.41" duration="123.00" routeLength="1219.53" waitingTime="0.00" waitingCount="0" stopTime="0.00" timeLoss="17.14" rerouteNo="0" devices="tripinfo_V53.0 battery_V53.0" vType="DEFAULT_VEHTYPE" speedFactor="0.85" vaporized=""/>
    <tripinfo id="V55.0" depart="8.00" departLane="-gneE51_0" departPos="5.10" departPosLat="0.00" departSpeed="0.00" departDelay="8.00" arrival="127.00" arrivalLane="gneE119_0" arrivalPos="202.94" arrivalPosLat="0.00" arrivalSpeed="15.82" duration="119.00" routeLength="979.33" waitingTime="21.00" waitingCount="1" stopTime="0.00" timeLoss="57.57" rerouteNo="0" devices="tripinfo_V55.0 battery_V55.0" vType="DEFAULT_VEHTYPE" speedFactor="1.17" vaporized=""/>
    <tripinfo id="V88.0" depart="3.00" departLane="gneE117_0" departPos="5.10" departPosLat="0.00" departSpeed="0.00" departDelay="3.00" arrival="127.00" arrivalLane="gneE63_0" arrivalPos="239.60" arrivalPosLat="0.00" arrivalSpeed="13.42" duration="124.00" routeLength="1228.26" waitingTime="0.00" waitingCount="0" stopTime="0.00" timeLoss="35.99" rerouteNo="0" devices="tripinfo_V88.0 battery_V88.0" vType="DEFAULT_VEHTYPE" speedFactor="1.04" vaporized=""/>
    <tripinfo id="V3.0" depart="6.00" departLane="gneE52_0" departPos="5.10" departPosLat="0.00" departSpeed="0.00" departDelay="6.00" arrival="128.00" arrivalLane="-gneE106_0" arrivalPos="198.76" arrivalPosLat="0.00" arrivalSpeed="11.62" duration="122.00" routeLength="1229.95" waitingTime="2.00" waitingCount="1" stopTime="0.00" timeLoss="20.47" rerouteNo="0" devices="tripinfo_V3.0 battery_V3.0" vType="DEFAULT_VEHTYPE" speedFactor="0.89" vaporized=""/>
    <tripinfo id="V94.0" depart="3.00" departLane="gneE64_0" departPos="5.10" departPosLat="0.00" departSpeed="0.00" departDelay="3.00" arrival="129.00" arrivalLane="gneE79_0" arrivalPos="200.80" arrivalPosLat="0.00" arrivalSpeed="4.93" duration="126.00" routeLength="1474.60" waitingTime="10.00" waitingCount="1" stopTime="0.00" timeLoss="27.54" rerouteNo="0" devices="tripinfo_V94.0 battery_V94.0" vType="DEFAULT_VEHTYPE" speedFactor="1.09" vaporized=""/>
    <tripinfo id="V37.0" depart="0.00" departLane="-gneE63_0" departPos="5.10" departPosLat="0.00" departSpeed="0.00" departDelay="0.00" arrival="130.00" arrivalLane="-gneE125_0" arrivalPos="18.68" arrivalPosLat="0.00" arrivalSpeed="13.09" duration="130.00" routeLength="1479.80" waitingTime="9.00" waitingCount="1" stopTime="0.00" timeLoss="35.77" rerouteNo="0" devices="tripinfo_V37.0 battery_V37.0" vType="DEFAULT_VEHTYPE" speedFactor="1.15" vaporized=""/>
    <tripinfo id="V26.0" depart="0.00" departLane="gneE63_0" departPos="5.10" departPosLat="0.00" departSpeed="0.00" departDelay="0.00" arrival="131.00" arrivalLane="-gneE67_0" arrivalPos="239.60" arrivalPosLat="0.00" arrivalSpeed="15.76" duration="131.00" routeLength="1474.89" waitingTime="8.00" waitingCount="1" stopTime="0.00" timeLoss="37.15" rerouteNo="0" devices="tripinfo_V26.0 battery_V26.0" vType="DEFAULT_VEHTYPE" speedFactor="1.16" vaporized=""/>
    <tripinfo id="V9.0" depart="9.00" departLane="-gneE65_0" departPos="5.10" departPosLat="0.00" departSpeed="0.00" departDelay="9.00" arrival="131.00" arrivalLane="-gneE71_0" arrivalPos="235.60" arrivalPosLat="0.00" arrivalSpeed="14.18" duration="122.00" routeLength="1231.62" waitingTime="0.00" waitingCount="0" stopTime="0.00" timeLoss="33.47" rerouteNo="0" devices="tripinfo_V9.0 battery_V9.0" vType="DEFAULT_VEHTYPE" speedFactor="1.02" vaporized=""/>
    <tripinfo id="V98.0" depart="3.00" departLane="-gneE50_0" departPos="5.10" departPosLat="0.00" departSpeed="0.00" departDelay="3.00" arrival="131.00" arrivalLane="-gneE61_0" arrivalPos="239.60" arrivalPosLat="0.00" arrivalSpeed="14.41" duration="128.00" routeLength="983.33" waitingTime="33.00" waitingCount="2" stopTime="0.00" timeLoss="63.67" rerouteNo="0" devices="tripinfo_V98.0 battery_V98.0" vType="DEFAULT_VEHTYPE" speedFactor="1.12" vaporized=""/>
    <tripinfo id="V51.0" depart="3.00" departLane="gneE71_0" departPos="5.10" departPosLat="0.00" departSpeed="0.00" departDelay="3.00" arrival="133.00" arrivalLane="-gneE50_0" arrivalPos="235.60" arrivalPosLat="0.00" arrivalSpeed="11.73" duration="130.00" routeLength="1231.42" waitingTime="8.00" waitingCount="2" stopTime="0.00" timeLoss="29.34" rerouteNo="0" devices="tripinfo_V51.0 battery_V51.0" vType="DEFAULT_VEHTYPE" speedFactor="0.90" vaporized=""/>
    <tripinfo id="V65.0" depart="6.00" departLane="gneE48_0" departPos="5.10" departPosLat="0.00" departSpeed="0.00" departDelay="6.00" arrival="133.00" arrivalLane="-gneE57_0" arrivalPos="234.83" arrivalPosLat="0.00" arrivalSpeed="13.66" duration="127.00" routeLength="979.31" waitingTime="24.00" waitingCount="2" stopTime="0.00" timeLoss="56.29" rerouteNo="0" devices="tripinfo_V65.0 battery_V65.0" vType="DEFAULT_VEHTYPE" speedFactor="1.02" vaporized=""/>