<?xml version="1.0" encoding="UTF-8"?>

<!-- generated on 04/25/21 16:36:08 by Eclipse SUMO sumo Version v1_8_0+1742-ceeb7fe3f3
<configuration xmlns:xsi="http://www.w3.org/2001/XMLSchema-instance" xsi:noNamespaceSchemaLocation="http://sumo.dlr.de/xsd/sumoConfiguration.xsd">

    <input>
        <net-file value="data/EVGrid.net.xml"/>
        <route-files value="data/electricvehicles.rou.xml,data/randroutes.rou.xml"/>
        <additional-files value="data/EVGrid_additionals.add.xml"/>
    </input>

    <output>
        <battery-output value="data/battery.out.xml"/>
        <battery-output.precision value="4"/>
        <chargingstations-output value="data/EVGrid_chargingstations.xml"/>
        <summary-output value="data/summary-overview.xml"/>
        <tripinfo-output value="tripinfo.xml"/>
    </output>

    <processing>
        <lateral-resolution value="1"/>
    </processing>

    <report>
        <no-warnings value="true"/>
    </report>

    <battery>
        <device.battery.probability value="1"/>
    </battery>

    <traci_server>
        <remote-port value="55572"/>
    </traci_server>

    <gui_only>
        <gui-settings-file value="data/gui-settings.cfg"/>
    </gui_only>

</configuration>
-->

<tripinfos xmlns:xsi="http://www.w3.org/2001/XMLSchema-instance" xsi:noNamespaceSchemaLocation="http://sumo.dlr.de/xsd/tripinfo_file.xsd">
    <tripinfo id="V40.0" depart="0.00" departLane="gneE61_0" departPos="5.10" departPosLat="0.00" departSpeed="0.00" departDelay="0.00" arrival="21.00" arrivalLane="gneE61_0" arrivalPos="239.60" arrivalPosLat="0.00" arrivalSpeed="14.07" duration="21.00" routeLength="234.50" waitingTime="0.00" waitingCount="0" stopTime="0.00" timeLoss="3.55" rerouteNo="0" devices="tripinfo_V40.0 battery_V40.0" vType="DEFAULT_VEHTYPE" speedFactor="1.02" vaporized=""/>
    <tripinfo id="V31.0" depart="0.00" departLane="gneE67_0" departPos="5.10" departPosLat="0.00" departSpeed="0.00" departDelay="0.00" arrival="23.00" arrivalLane="gneE67_0" arrivalPos="239.60" arrivalPosLat="0.00" arrivalSpeed="11.07" duration="23.00" routeLength="234.50" waitingTime="0.00" waitingCount="0" stopTime="0.00" timeLoss="3.51" rerouteNo="0" devices="tripinfo_V31.0 battery_V31.0" vType="DEFAULT_VEHTYPE" speedFactor="0.87" vaporized=""/>
    <tripinfo id="V55.0" depart="0.00" departLane="gneE71_0" departPos="5.10" departPosLat="0.00" departSpeed="0.00" departDelay="0.00" arrival="54.00" arrivalLane="gneE63_0" arrivalPos="239.60" arrivalPosLat="0.00" arrivalSpeed="15.38" duration="54.00" routeLength="729.13" waitingTime="0.00" waitingCount="0" stopTime="0.00" timeLoss="8.61" rerouteNo="0" devices="tripinfo_V55.0 battery_V55.0" vType="DEFAULT_VEHTYPE" speedFactor="1.17" vaporized=""/>
    <tripinfo id="V10.0" depart="0.00" departLane="gneE78_0" departPos="5.10" departPosLat="0.00" departSpeed="0.00" departDelay="0.00" arrival="69.00" arrivalLane="gneE71_0" arrivalPos="235.60" arrivalPosLat="0.00" arrivalSpeed="7.93" duration="69.00" routeLength="730.49" waitingTime="0.00" waitingCount="0" stopTime="0.00" timeLoss="16.78" rerouteNo="0" devices="tripinfo_V10.0 battery_V10.0" vType="DEFAULT_VEHTYPE" speedFactor="1.01" vaporized=""/>
    <tripinfo id="V80.0" depart="3.00" departLane="-gneE106_0" departPos="5.10" departPosLat="0.00" departSpeed="0.00" departDelay="3.00" arrival="69.00" arrivalLane="gneE78_0" arrivalPos="26.81" arrivalPosLat="0.00" arrivalSpeed="12.66" duration="66.00" routeLength="735.06" waitingTime="0.00" waitingCount="0" stopTime="0.00" timeLoss="14.55" rerouteNo="0" devices="tripinfo_V80.0 battery_V80.0" vType="DEFAULT_VEHTYPE" speedFactor="1.09" vaporized=""/>
    <tripinfo id="V22.0" depart="0.00" departLane="gneE49_0" departPos="5.10" departPosLat="0.00" departSpeed="0.00" departDelay="0.00" arrival="70.00" arrivalLane="gneE63_0" arrivalPos="239.60" arrivalPosLat="0.00" arrivalSpeed="12.58" duration="70.00" routeLength="728.32" waitingTime="2.00" waitingCount="1" stopTime="0.00" timeLoss="12.06" rerouteNo="0" devices="tripinfo_V22.0 battery_V22.0" vType="DEFAULT_VEHTYPE" speedFactor="0.93" vaporized=""/>
    <tripinfo id="V82.0" depart="6.00" departLane="gneE71_0" departPos="5.10" departPosLat="0.00" departSpeed="0.00" departDelay="6.00" arrival="72.00" arrivalLane="gneE63_0" arrivalPos="239.60" arrivalPosLat="0.00" arrivalSpeed="12.67" duration="66.00" routeLength="729.13" waitingTime="1.00" waitingCount="1" stopTime="0.00" timeLoss="12.76" rerouteNo="0" devices="tripinfo_V82.0 battery_V82.0" vType="DEFAULT_VEHTYPE" speedFactor="1.00" vaporized=""/>
    <tripinfo id="V68.0" depart="6.00" departLane="-gneE78_0" departPos="5.10" departPosLat="0.00" departSpeed="0.00" departDelay="6.00" arrival="80.00" arrivalLane="-gneE125_0" arrivalPos="18.68" arrivalPosLat="0.00" arrivalSpeed="12.08" duration="74.00" routeLength="767.35" waitingTime="0.00" waitingCount="0" stopTime="0.00" timeLoss="9.57" rerouteNo="0" devices="tripinfo_V68.0 battery_V68.0" vType="DEFAULT_VEHTYPE" speedFactor="0.88" vaporized=""/>
    <tripinfo id="V58.0" depart="0.00" departLane="-gneE127_0" departPos="5.10" departPosLat="0.00" departSpeed="0.00" departDelay="0.00" arrival="81.00" arrivalLane="gneE68_0" arrivalPos="235.60" arrivalPosLat="0.00" arrivalSpeed="13.65" duration="81.00" routeLength="930.87" waitingTime="0.00" waitingCount="0" stopTime="0.00" timeLoss="11.66" rerouteNo="0" devices="tripinfo_V58.0 battery_V58.0" vType="DEFAULT_VEHTYPE" speedFactor="1.00" vaporized=""/>
    <tripinfo id="V73.0" depart="11.00" departLane="gneE63_0" departPos="5.10" departPosLat="0.00" departSpeed="0.00" departDelay="11.00" arrival="81.00" arrivalLane="gneE125_0" arrivalPos="18.68" arrivalPosLat="0.00" arrivalSpeed="13.20" duration="70.00" routeLength="764.50" waitingTime="0.00" waitingCount="0" stopTime="0.00" timeLoss="12.39" rerouteNo="0" devices="tripinfo_V73.0 battery_V73.0" vType="DEFAULT_VEHTYPE" speedFactor="0.97" vaporized=""/>
    <tripinfo id="V48.0" depart="3.00" departLane="-gneE47_0" departPos="5.10" departPosLat="0.00" departSpeed="0.00" departDelay="3.00" arrival="85.00" arrivalLane="gneE106_0" arrivalPos="198.76" arrivalPosLat="0.00" arrivalSpeed="13.64" duration="82.00" routeLength="934.50" waitingTime="0.00" waitingCount="0" stopTime="0.00" timeLoss="15.96" rerouteNo="0" devices="tripinfo_V48.0 battery_V48.0" vType="DEFAULT_VEHTYPE" speedFactor="1.04" vaporized=""/>
    <tripinfo id="V75.0" depart="0.00" departLane="-gneE69_0" departPos="5.10" departPosLat="0.00" departSpeed="0.00" departDelay="0.00" arrival="85.00" arrivalLane="gneE117_0" arrivalPos="25.10" arrivalPosLat="0.00" arrivalSpeed="12.54" duration="85.00" routeLength="513.10" waitingTime="23.00" waitingCount="3" stopTime="0.00" timeLoss="48.58" rerouteNo="0" devices="tripinfo_V75.0 battery_V75.0" vType="DEFAULT_VEHTYPE" speedFactor="1.06" vaporized=""/>
    <tripinfo id="V18.0" depart="3.00" departLane="gneE106_0" departPos="5.10" departPosLat="0.00" departSpeed="0.00" departDelay="3.00" arrival="88.00" arrivalLane="-gneE119_0" arrivalPos="202.94" arrivalPosLat="0.00" arrivalSpeed="14.96" duration="85.00" routeLength="941.39" waitingTime="3.00" waitingCount="1" stopTime="0.00" timeLoss="21.34" rerouteNo="0" devices="tripinfo_V18.0 battery_V18.0" vType="DEFAULT_VEHTYPE" speedFactor="1.09" vaporized=""/>
    <tripinfo id="V47.0" depart="3.00" departLane="gneE63_0" departPos="5.10" departPosLat="0.00" departSpeed="0.00" departDelay="3.00" arrival="89.00" arrivalLane="-gneE68_0" arrivalPos="235.60" arrivalPosLat="0.00" arrivalSpeed="6.74" duration="86.00" routeLength="971.31" waitingTime="4.00" waitingCount="1" stopTime="0.00" timeLoss="20.58" rerouteNo="0" devices="tripinfo_V47.0 battery_V47.0" vType="DEFAULT_VEHTYPE" speedFactor="1.09" vaporized=""/>
    <tripinfo id="V63.0" depart="0.00" departLane="-gneE71_0" departPos="5.10" departPosLat="0.00" departSpeed="0.00" departDelay="0.00" arrival="89.00" arrivalLane="gneE69_0" arrivalPos="235.60" arrivalPosLat="0.00" arrivalSpeed="6.38" duration="89.00" routeLength="730.29" waitingTime="16.00" waitingCount="1" stopTime="0.00" timeLoss="39.31" rerouteNo="0" devices="tripinfo_V63.0 battery_V63.0" vType="DEFAULT_VEHTYPE" speedFactor="1.08" vaporized=""/>
    <tripinfo id="V92.0" depart="0.00" departLane="gneE79_0" departPos="5.10" departPosLat="0.00" departSpeed="0.00" departDelay="0.00" arrival="91.00" arrivalLane="-gneE61_0" arrivalPos="239.60" arrivalPosLat="0.00" arrivalSpeed="10.88" duration="91.00" routeLength="949.49" waitingTime="0.00" waitingCount="0" stopTime="0.00" timeLoss="8.04" rerouteNo="0" devices="tripinfo_V92.0 battery_V92.0" vType="DEFAULT_VEHTYPE" speedFactor="0.83" vaporized=""/>
    <tripinfo id="V65.0" depart="9.00" departLane="gneE49_0" departPos="5.10" departPosLat="0.00" departSpeed="0.00" departDelay="9.00" arrival="92.00" arrivalLane="-gneE68_0" arrivalPos="235.60" arrivalPosLat="0.00" arrivalSpeed="13.17" duration="83.00" routeLength="964.39" waitingTime="0.00" waitingCount="0" stopTime="0.00" timeLoss="12.67" rerouteNo="0" devices="tripinfo_V65.0 battery_V65.0" vType="DEFAULT_VEHTYPE" speedFactor="1.02" vaporized=""/>
    <tripinfo id="V86.0" depart="12.00" departLane="-gneE47_0" departPos="5.10" departPosLat="0.00" departSpeed="0.00" departDelay="12.00" arrival="95.00" arrivalLane="gneE51_0" arrivalPos="235.60" arrivalPosLat="0.00" arrivalSpeed="12.94" duration="83.00" routeLength="974.21" waitingTime="0.00" waitingCount="0" stopTime="0.00" timeLoss="8.98" rerouteNo="0" devices="tripinfo_V86.0 battery_V86.0" vType="DEFAULT_VEHTYPE" speedFactor="0.98" vaporized=""/>
    <tripinfo id="V14.0" depart="0.00" departLane="gneE119_0" departPos="5.10" departPosLat="0.00" departSpeed="0.00" departDelay="0.00" arrival="96.00" arrivalLane="-gneE52_0" arrivalPos="235.59" arrivalPosLat="0.00" arrivalSpeed="13.23" duration="96.00" routeLength="1186.04" waitingTime="0.00" waitingCount="0" stopTime="0.00" timeLoss="12.63" rerouteNo="0" devices="tripinfo_V14.0 battery_V14.0" vType="DEFAULT_VEHTYPE" speedFactor="1.05" vaporized=""/>
    <tripinfo id="V89.0" depart="6.00" departLane="gneE68_0" departPos="5.10" departPosLat="0.00" departSpeed="0.00" departDelay="6.00" arrival="96.00" arrivalLane="gneE48_0" arrivalPos="235.60" arrivalPosLat="0.00" arrivalSpeed="12.84" duration="90.00" routeLength="965.26" waitingTime="0.00" waitingCount="0" stopTime="0.00" timeLoss="18.98" rerouteNo="0" devices="tripinfo_V89.0 battery_V89.0" vType="DEFAULT_VEHTYPE" speedFactor="1.01" vaporized=""/>
    <tripinfo id="V50.0" depart="9.00" departLane="gneE46_0" departPos="5.10" departPosLat="0.00" departSpeed="0.00" departDelay="9.00" arrival="97.00" arrivalLane="gneE51_0" arrivalPos="235.60" arrivalPosLat="0.00" arrivalSpeed="12.83" duration="88.00" routeLength="984.07" waitingTime="3.00" waitingCount="1" stopTime="0.00" timeLoss="15.42" rerouteNo="0" devices="tripinfo_V50.0 battery_V50.0" vType="DEFAULT_VEHTYPE" speedFactor="1.00" vaporized=""/>
    <tripinfo id="V60.0" depart="6.00" departLane="-gneE57_0" departPos="5.10" departPosLat="0.00" departSpeed="0.00" departDelay="6.00" arrival="98.00" arrivalLane="gneE69_0" arrivalPos="235.60" arrivalPosLat="0.00" arrivalSpeed="8.28" duration="92.00" routeLength="974.56" waitingTime="10.00" waitingCount="1" stopTime="0.00" timeLoss="28.35" rerouteNo="0" devices="tripinfo_V60.0 battery_V60.0" vType="DEFAULT_VEHTYPE" speedFactor="1.14" vaporized=""/>
    <tripinfo id="V94.0" depart="3.00" departLane="-gneE70_0" departPos="5.10" departPosLat="0.00" departSpeed="0.00" departDelay="3.00" arrival="98.00" arrivalLane="-gneE46_0" arrivalPos="239.59" arrivalPosLat="0.00" arrivalSpeed="13.86" duration="95.00" routeLength="1223.29" waitingTime="0.00" waitingCount="0" stopTime="0.00" timeLoss="13.70" rerouteNo="0" devices="tripinfo_V94.0 battery_V94.0" vType="DEFAULT_VEHTYPE" speedFactor="1.09" vaporized=""/>
    <tripinfo id="V96.0" depart="0.00" departLane="-gneE117_0" departPos="5.10" departPosLat="0.00" departSpeed="0.00" departDelay="0.00" arrival="98.00" arrivalLane="gneE117_0" arrivalPos="25.10" arrivalPosLat="0.00" arrivalSpeed="13.06" duration="98.00" routeLength="1042.82" waitingTime="0.00" waitingCount="0" stopTime="0.00" timeLoss="21.17" rerouteNo="0" devices="tripinfo_V96.0 battery_V96.0" vType="DEFAULT_VEHTYPE" speedFactor="1.01" vaporized=""/>
    <tripinfo id="V24.0" depart="0.00" departLane="-gneE106_0" departPos="5.10" departPosLat="0.00" departSpeed="0.00" departDelay="0.00" arrival="102.00" arrivalLane="-gneE50_0" arrivalPos="235.60" arrivalPosLat="0.00" arrivalSpeed="12.49" duration="102.00" routeLength="932.91" waitingTime="13.00" waitingCount="1" stopTime="0.00" timeLoss="29.13" rerouteNo="0" devices="tripinfo_V24.0 battery_V24.0" vType="DEFAULT_VEHTYPE" speedFactor="0.94" vaporized=""/>
    <tripinfo id="V70.0" depart="0.00" departLane="gneE51_0" departPos="5.10" departPosLat="0.00" departSpeed="0.00" departDelay="0.00" arrival="102.00" arrivalLane="-gneE46_0" arrivalPos="239.59" arrivalPosLat="0.00" arrivalSpeed="13.73" duration="102.00" routeLength="1222.07" waitingTime="0.00" waitingCount="0" stopTime="0.00" timeLoss="14.54" rerouteNo="0" devices="tripinfo_V70.0 battery_V70.0" vType="DEFAULT_VEHTYPE" speedFactor="1.04" vaporized=""/>
    <tripinfo id="V11.0" depart="0.00" departLane="gneE46_0" departPos="5.10" departPosLat="0.00" departSpeed="0.00" departDelay="0.00" arrival="104.00" arrivalLane="-gneE127_0" arrivalPos="204.53" arrivalPosLat="0.00" arrivalSpeed="14.53" duration="104.00" routeLength="1226.87" waitingTime="4.00" waitingCount="1" stopTime="0.00" timeLoss="19.22" rerouteNo="0" devices="tripinfo_V11.0 battery_V11.0" vType="DEFAULT_VEHTYPE" speedFactor="1.08" vaporized=""/>
    <tripinfo id="V17.0" depart="3.00" departLane="gneE46_0" departPos="5.10" departPosLat="0.00" departSpeed="0.00" departDelay="3.00" arrival="104.00" arrivalLane="gneE125_0" arrivalPos="18.68" arrivalPosLat="0.00" arrivalSpeed="10.42" duration="101.00" routeLength="1010.69" waitingTime="0.00" waitingCount="0" stopTime="0.00" timeLoss="12.72" rerouteNo="0" devices="tripinfo_V17.0 battery_V17.0" vType="DEFAULT_VEHTYPE" speedFactor="0.86" vaporized=""/>
    <tripinfo id="V43.0" depart="6.00" departLane="gneE49_0" departPos="5.10" departPosLat="0.00" departSpeed="0.00" departDelay="6.00" arrival="106.00" arrivalLane="-gneE70_0" arrivalPos="229.76" arrivalPosLat="0.00" arrivalSpeed="14.34" duration="100.00" routeLength="1225.15" waitingTime="0.00" waitingCount="0" stopTime="0.00" timeLoss="16.75" rerouteNo="0" devices="tripinfo_V43.0 battery_V43.0" vType="DEFAULT_VEHTYPE" speedFactor="1.10" vaporized=""/>
    <tripinfo id="V72.0" depart="3.00" departLane="gneE71_0" departPos="5.10" departPosLat="0.00" departSpeed="0.00" departDelay="3.00" arrival="106.00" arrivalLane="gneE125_0" arrivalPos="18.68" arrivalPosLat="0.00" arrivalSpeed="13.34" duration="103.00" routeLength="1259.13" waitingTime="0.00" waitingCount="0" stopTime="0.00" timeLoss="13.20" rerouteNo="0" devices="tripinfo_V72.0 battery_V72.0" vType="DEFAULT_VEHTYPE" speedFactor="1.02" vaporized=""/>
    <tripinfo id="V41.0" depart="0.00" departLane="gneE47_0" departPos="5.10" departPosLat="0.00" departSpeed="0.00" departDelay="0.00" arrival="107.00" arrivalLane="gneE65_0" arrivalPos="235.60" arrivalPosLat="0.00" arrivalSpeed="12.87" duration="107.00" routeLength="1214.55" waitingTime="0.00" waitingCount="0" stopTime="0.00" timeLoss="15.35" rerouteNo="0" devices="tripinfo_V41.0 battery_V41.0" vType="DEFAULT_VEHTYPE" speedFactor="0.97" vaporized=""/>
    <tripinfo id="V90.0" depart="3.00" departLane="-gneE61_0" departPos="5.10" departPosLat="0.00" departSpeed="0.00" departDelay="3.00" arrival="108.00" arrivalLane="-gneE50_0" arrivalPos="235.60" arrivalPosLat="0.00" arrivalSpeed="12.94" duration="105.00" routeLength="981.63" waitingTime="9.00" waitingCount="1" stopTime="0.00" timeLoss="33.78" rerouteNo="0" devices="tripinfo_V90.0 battery_V90.0" vType="DEFAULT_VEHTYPE" speedFactor="1.02" vaporized=""/>
    <tripinfo id="V67.0" depart="16.00" departLane="gneE119_0" departPos="5.10" departPosLat="0.00" departSpeed="0.00" departDelay="16.00" arrival="110.00" arrivalLane="gneE70_0" arrivalPos="229.76" arrivalPosLat="0.00" arrivalSpeed="12.95" duration="94.00" routeLength="941.37" waitingTime="0.00" waitingCount="0" stopTime="0.00" timeLoss="18.74" rerouteNo="0" devices="tripinfo_V67.0 battery_V67.0" vType="DEFAULT_VEHTYPE" speedFactor="0.94" vaporized=""/>
    <tripinfo id="V69.0" depart="8.00" departLane="gneE63_0" departPos="5.10" departPosLat="0.00" departSpeed="0.00" departDelay="8.00" arrival="110.00" arrivalLane="-gneE49_0" arrivalPos="235.60" arrivalPosLat="0.00" arrivalSpeed="12.19" duration="102.00" routeLength="971.10" waitingTime="6.00" waitingCount="1" stopTime="0.00" timeLoss="23.41" rerouteNo="0" devices="tripinfo_V69.0 battery_V69.0" vType="DEFAULT_VEHTYPE" speedFactor="0.91" vaporized=""/>
    <tripinfo id="V98.0" depart="0.00" departLane="gneE57_0" departPos="5.10" departPosLat="0.00" departSpeed="0.00" departDelay="0.00" arrival="110.00" arrivalLane="gneE119_0" arrivalPos="202.94" arrivalPosLat="0.00" arrivalSpeed="15.39" duration="110.00" routeLength="973.19" waitingTime="19.00" waitingCount="2" stopTime="0.00" timeLoss="45.24" rerouteNo="0" devices="tripinfo_V98.0 battery_V98.0" vType="DEFAULT_VEHTYPE" speedFactor="1.12" vaporized=""/>
    <tripinfo id="V27.0" depart="3.00" departLane="gneE49_0" departPos="5.10" departPosLat="0.00" departSpeed="0.00" departDelay="3.00" arrival="112.00" arrivalLane="-gneE61_0" arrivalPos="239.60" arrivalPosLat="0.00" arrivalSpeed="13.30" duration="109.00" routeLength="983.54" waitingTime="20.00" waitingCount="2" stopTime="0.00" timeLoss="38.18" rerouteNo="0" devices="tripinfo_V27.0 battery_V27.0" vType="DEFAULT_VEHTYPE" speedFactor="1.02" vaporized=""/>
    <tripinfo id="V16.0" depart="0.00" departLane="gneE106_0" departPos="5.10" departPosLat="0.00" departSpeed="0.00" departDelay="0.00" arrival="115.00" arrivalLane="-gneE125_0" arrivalPos="18.68" arrivalPosLat="0.00" arrivalSpeed="12.79" duration="115.00" routeLength="1220.26" waitingTime="4.00" waitingCount="1" stopTime="0.00" timeLoss="18.94" rerouteNo="0" devices="tripinfo_V16.0 battery_V16.0" vType="DEFAULT_VEHTYPE" speedFactor="0.94" vaporized=""/>
    <tripinfo id="V44.0" depart="3.00" departLane="gneE61_0" departPos="5.10" departPosLat="0.00" departSpeed="0.00" departDelay="3.00" arrival="115.00" arrivalLane="-gneE52_0" arrivalPos="235.59" arrivalPosLat="0.00" arrivalSpeed="12.01" duration="112.00" routeLength="1217.54" waitingTime="0.00" waitingCount="0" stopTime="0.00" timeLoss="11.64" rerouteNo="0" devices="tripinfo_V44.0 battery_V44.0" vType="DEFAULT_VEHTYPE" speedFactor="0.90" vaporized=""/>
    <tripinfo id="V46.0" depart="0.00" departLane="-gneE47_0" departPos="5.10" departPosLat="0.00" departSpeed="0.00" departDelay="0.00" arrival="115.00" arrivalLane="-gneE79_0" arrivalPos="200.80" arrivalPosLat="0.00" arrivalSpeed="12.43" duration="115.00" routeLength="1180.66" waitingTime="6.00" waitingCount="1" stopTime="0.00" timeLoss="23.59" rerouteNo="0" devices="tripinfo_V46.0 battery_V46.0" vType="DEFAULT_VEHTYPE" speedFactor="0.96" vaporized=""/>
    <tripinfo id="V95.0" depart="0.00" departLane="gneE53_0" departPos="5.10" departPosLat="0.00" departSpeed="0.00" departDelay="0.00" arrival="115.00" arrivalLane="-gneE65_0" arrivalPos="235.60" arrivalPosLat="0.00" arrivalSpeed="13.54" duration="115.00" routeLength="1483.20" waitingTime="0.00" waitingCount="0" stopTime="0.00" timeLoss="12.83" rerouteNo="0" devices="tripinfo_V95.0 battery_V95.0" vType="DEFAULT_VEHTYPE" speedFactor="1.06" vaporized=""/>
    <tripinfo id="V21.0" depart="6.00" departLane="gneE46_0" departPos="5.10" departPosLat="0.00" departSpeed="0.00" departDelay="6.00" arrival="119.00" arrivalLane="gneE69_0" arrivalPos="235.60" arrivalPosLat="0.00" arrivalSpeed="13.45" duration="113.00" routeLength="1228.92" waitingTime="0.00" waitingCount="0" stopTime="0.00" timeLoss="21.33" rerouteNo="0" devices="tripinfo_V21.0 battery_V21.0" vType="DEFAULT_VEHTYPE" speedFactor="0.99" vaporized=""/>
    <tripinfo id="V7.0" depart="6.00" departLane="gneE61_0" departPos="5.10" departPosLat="0.00" departSpeed="0.00" departDelay="6.00" arrival="119.00" arrivalLane="-gneE64_0" arrivalPos="239.60" arrivalPosLat="0.00" arrivalSpeed="11.69" duration="113.00" routeLength="1232.08" waitingTime="0.00" waitingCount="0" stopTime="0.00" timeLoss="12.98" rerouteNo="0" devices="tripinfo_V7.0 battery_V7.0" vType="DEFAULT_VEHTYPE" speedFactor="0.91" vaporized=""/>
    <tripinfo id="V85.0" depart="9.00" departLane="-gneE47_0" departPos="5.10" departPosLat="0.00" departSpeed="0.00" departDelay="9.00" arrival="120.00" arrivalLane="-gneE78_0" arrivalPos="26.81" arrivalPosLat="0.00" arrivalSpeed="15.58" duration="111.00" routeLength="1215.46" waitingTime="2.00" waitingCount="1" stopTime="0.00" timeLoss="32.86" rerouteNo="0" devices="tripinfo_V85.0 battery_V85.0" vType="DEFAULT_VEHTYPE" speedFactor="1.15" vaporized=""/>
    <tripinfo id="V19.0" depart="3.00" departLane="gneE119_0" departPos="5.10" departPosLat="0.00" departSpeed="0.00" departDelay="3.00" arrival="122.00" arrivalLane="gneE63_0" arrivalPos="239.60" arrivalPosLat="0.00" arrivalSpeed="13.72" duration="119.00" routeLength="1195.03" waitingTime="7.00" waitingCount="2" stopTime="0.00" timeLoss="32.00" rerouteNo="0" devices="tripinfo_V19.0 battery_V19.0" vType="DEFAULT_VEHTYPE" speedFactor="1.03" vaporized=""/>
    <tripinfo id="V53.0" depart="3.00" departLane="-gneE48_0" departPos="5.10" departPosLat="0.00" departSpeed="0.00" departDelay="3.00" arrival="122.00" arrivalLane="gneE51_0" arrivalPos="235.60" arrivalPosLat="0.00" arrivalSpeed="11.63" duration="119.00" routeLength="1218.84" waitingTime="0.00" waitingCount="0" stopTime="0.00" timeLoss="11.93" rerouteNo="0" devices="tripinfo_V53.0 battery_V53.0" vType="DEFAULT_VEHTYPE" speedFactor="0.85" vaporized=""/>
    <tripinfo id="V6.0" depart="0.00" departLane="-gneE51_0" departPos="5.10" departPosLat="0.00" departSpeed="0.00" departDelay="0.00" arrival="122.00" arrivalLane="gneE64_0" arrivalPos="239.60" arrivalPosLat="0.00" arrivalSpeed="12.36" duration="122.00" routeLength="1221.10" waitingTime="5.00" waitingCount="1" stopTime="0.00" timeLoss="22.15" rerouteNo="0" devices="tripinfo_V6.0 battery_V6.0" vType="DEFAULT_VEHTYPE" speedFactor="0.90" vaporized=""/>
    <tripinfo id="V15.0" depart="0.00" departLane="-gneE57_0" departPos="5.10" departPosLat="0.00" departSpeed="0.00" departDelay="0.00" arrival="124.00" arrivalLane="gneE71_0" arrivalPos="235.60" arrivalPosLat="0.00" arrivalSpeed="12.09" duration="124.00" routeLength="1213.33" waitingTime="4.00" waitingCount="1" stopTime="0.00" timeLoss="21.97" rerouteNo="0" devices="tripinfo_V15.0 battery_V15.0" vType="DEFAULT_VEHTYPE" speedFactor="0.89" vaporized=""/>
    <tripinfo id="V99.0" depart="6.00" departLane="-gneE69_0" departPos="5.10" departPosLat="0.00" departSpeed="0.00" departDelay="6.00" arrival="124.00" arrivalLane="-gneE107_0" arrivalPos="20.15" arrivalPosLat="0.00" arrivalSpeed="11.37" duration="118.00" routeLength="762.24" waitingTime="40.00" waitingCount="4" stopTime="0.00" timeLoss="66.30" rerouteNo="0" devices="tripinfo_V99.0 battery_V99.0" vType="DEFAULT_VEHTYPE" speedFactor="1.10" vaporized=""/>
    <tripinfo id="V29.0" depart="0.00" departLane="gneE117_0" departPos="5.10" departPosLat="0.00" departSpeed="0.00" departDelay="0.00" arrival="125.00" arrivalLane="gneE65_0" arrivalPos="235.60" arrivalPosLat="0.00" arrivalSpeed="12.55" duration="125.00" routeLength="1225.28" waitingTime="5.00" waitingCount="2" stopTime="0.00" timeLoss="32.23" rerouteNo="0" devices="tripinfo_V29.0 battery_V29.0" vType="DEFAULT_VEHTYPE" speedFactor="0.98" vaporized=""/>
    <tripinfo id="V59.0" depart="3.00" departLane="-gneE50_0" departPos="5.10" departPosLat="0.00" departSpeed="0.00" departDelay="3.00" arrival="126.00" arrivalLane="-gneE70_0" arrivalPos="229.76" arrivalPosLat="0.00" arrivalSpeed="13.15" duration="123.00" routeLength="1230.52" waitingTime="8.00" waitingCount="1" stopTime="0.00" timeLoss="30.97" rerouteNo="0" devices="tripinfo_V59.0 battery_V59.0" vType="DEFAULT_VEHTYPE" speedFactor="1.00" vaporized=""/>
    <tripinfo id="V62.0" depart="3.00" departLane="gneE50_0" departPos="5.10" departPosLat="0.00" departSpeed="0.00" departDelay="3.00" arrival="126.00" arrivalLane="gneE57_0" arrivalPos="234.83" arrivalPosLat="0.00" arrivalSpeed="13.22" duration="123.00" routeLength="1228.25" waitingTime="6.00" waitingCount="1" stopTime="0.00" timeLoss="29.09" rerouteNo="0" devices="tripinfo_V62.0 battery_V62.0" vType="DEFAULT_VEHTYPE" speedFactor="0.97" vaporized=""/>
    <tripinfo id="V52.0" depart="3.00" departLane="gneE117_0" departPos="5.10" departPosLat="0.00" departSpeed="0.00" departDelay="3.00" arrival="127.00" arrivalLane="gneE49_0" arrivalPos="235.60" arrivalPosLat="0.00" arrivalSpeed="11.45" duration="124.00" routeLength="1230.29" waitingTime="3.00" waitingCount="1" stopTime="0.00" timeLoss="20.59" rerouteNo="0" devices="tripinfo_V52.0 battery_V52.0" vType="DEFAULT_VEHTYPE" speedFactor="0.88" vaporized=""/>
    <tripinfo id="V4.0" depart="0.00" departLane="-gneE70_0" departPos="5.10" departPosLat="0.00" departSpeed="0.00" departDelay="0.00" arrival="128.00" arrivalLane="-gneE106_0" arrivalPos="198.76" arrivalPosLat="0.00" arrivalSpeed="13.26" duration="128.00" routeLength="969.28" waitingTime="33.00" waitingCount="3" stopTime="0.00" timeLoss="57.19" rerouteNo="0" devices="tripinfo_V4.0 battery_V4.0" vType="DEFAULT_VEHTYPE" speedFactor="0.99" vaporized=""/>
    <tripinfo id="V20.0" depart="0.00" departLane="-gneE46_0" departPos="5.10" departPosLat="0.00" departSpeed="0.00" departDelay="0.00" arrival="129.00" arrivalLane="-gneE70_0" arrivalPos="229.76" arrivalPosLat="0.00" arrivalSpeed="15.33" duration="129.00" routeLength="1716.85" waitingTime="0.00" waitingCount="0" stopTime="0.00" timeLoss="17.06" rerouteNo="0" devices="tripinfo_V20.0 battery_V20.0" vType="DEFAULT_VEHTYPE" speedFactor="1.12" vaporized=""/>
    <tripinfo id="V9.0" depart="6.00" departLane="-gneE125_0" departPos="5.10" departPosLat="0.00" departSpeed="0.00" departDelay="6.00" arrival="131.00" arrivalLane="-gneE60_0" arrivalPos="239.60" arrivalPosLat="0.00" arrivalSpeed="9.04" duration="125.00" routeLength="1520.98" waitingTime="0.00" waitingCount="0" stopTime="0.00" timeLoss="16.31" rerouteNo="0" devices="tripinfo_V9.0 battery_V9.0" vType="DEFAULT_VEHTYPE" speedFactor="1.02" vaporized=""/>
    <tripinfo id="V77.0" depart="6.00" departLane="-gneE47_0" departPos="5.10" departPosLat="0.00" departSpeed="0.00" departDelay="6.00" arrival="133.00" arrivalLane="-gneE57_0" arrivalPos="234.83" arrivalPosLat="0.00" arrivalSpeed="13.10" duration="127.00" routeLength="1465.17" waitingTime="0.00" waitingCount="0" stopTime="0.00" timeLoss="17.41" rerouteNo="0" devices="tripinfo_V77.0 battery_V77.0" vType="DEFAULT_VEHTYPE" speedFactor="0.98" vaporized=""/>
    <tripinfo id="V45.0" depart="0.00" departLane="-gneE68_0" departPos="5.10" departPosLat="0.00" departSpeed="0.00" departDelay="0.00" arrival="134.00" arrivalLane="gneE48_0" arrivalPos="235.60" arrivalPosLat="0.00" arrivalSpeed="14.19" duration="134.00" routeLength="1229.10" waitingTime="26.00" waitingCount="2" stopTime="0.00" timeLoss="45.18" rerouteNo="0" devices="tripinfo_V45.0 battery_V45.0" vType="DEFAULT_VEHTYPE" speedFactor="1.03" vaporized=""/>
    <tripinfo id="V61.0" depart="2.00" departLane="-gneE51_0" departPos="5.10" departPosLat="0.00" departSpeed="0.00" departDelay="2.00" arrival="134.00" arrivalLane="gneE106_0" arrivalPos="198.76" arrivalPosLat="0.00" arrivalSpeed="14.05" duration="132.00" routeLength="1423.75" waitingTime="5.00" waitingCount="1" stopTime="0.00" timeLoss="28.48" rerouteNo="0" devices="tripinfo_V61.0 battery_V61.0" vType="DEFAULT_VEHTYPE" speedFactor="1.02" vaporized=""/>
    <tripinfo id="V28.0" depart="3.00" departLane="gneE70_0" departPos="5.10" departPosLat="0.00" departSpeed="0.00" departDelay="3.00" arrival="135.00" arrivalLane="-gneE52_0" arrivalPos="235.59" arrivalPosLat="0.00" arrivalSpeed="13.81" duration="132.00" routeLength="1467.74" waitingTime="0.00" waitingCount="0" stopTime="0.00" timeLoss="24.17" rerouteNo="0" devices="tripinfo_V28.0 battery_V28.0" vType="DEFAULT_VEHTYPE" speedFactor="1.01" vaporized=""/>
    <tripinfo id="V97.0" depart="19.00" departLane="gneE119_0" departPos="5.10" departPosLat="0.00" departSpeed="0.00" departDelay="19.00" arrival="139.00" arrivalLane="gneE125_0" arrivalPos="18.68" arrivalPosLat="0.00" arrivalSpeed="10.39" duration="120.00" routeLength="1229.04" waitingTime="0.00" waitingCount="0" stopTime="0.00" timeLoss="19.74" rerouteNo="0" devices="tripinfo_V97.0 battery_V97.0" vType="DEFAULT_VEHTYPE" speedFactor="0.91" vaporized=""/>
    <tripinfo id="V36.0" depart="3.00" departLane="-gneE119_0" departPos="5.10" departPosLat="0.00" departSpeed="0.00" departDelay="3.00" arrival="141.00" arrivalLane="-gneE53_0" arrivalPos="239.61" arrivalPosLat="0.00" arrivalSpeed="15.69" duration="138.00" routeLength="1715.32" waitingTime="0.00" waitingCount="0" stopTime="0.00" timeLoss="31.25" rerouteNo="0" devices="tripinfo_V36.0 battery_V36.0" vType="DEFAULT_VEHTYPE" speedFactor="1.18" vaporized=""/>
    <tripinfo id="V12.0" depart="0.00" departLane="gneE68_0" departPos="5.10" departPosLat="0.00" departSpeed="0.00" departDelay="0.00" arrival="143.00" arrivalLane="gneE65_0" arrivalPos="235.60" arrivalPosLat="0.00" arrivalSpeed="13.24" duration="143.00" routeLength="1704.52" waitingTime="0.00" waitingCount="0" stopTime="0.00" timeLoss="21.30" rerouteNo="0" devices="tripinfo_V12.0 battery_V12.0" vType="DEFAULT_VEHTYPE" speedFactor="1.03" vaporized=""/>