<?xml version="1.0" encoding="UTF-8"?>

<!-- generated on 04/02/21 17:01:10 by Eclipse SUMO GUI Version v1_8_0+1742-ceeb7fe3f3
<configuration xmlns:xsi="http://www.w3.org/2001/XMLSchema-instance" xsi:noNamespaceSchemaLocation="http://sumo.dlr.de/xsd/sumoConfiguration.xsd">

    <input>
        <net-file value="data/EVGrid.net.xml"/>
        <route-files value="data/electricvehicles.rou.xml,data/randroutes.rou.xml"/>
        <additional-files value="data/EVGrid_additionals.add.xml"/>
    </input>

    <output>
        <battery-output value="data/battery.out.xml"/>
        <battery-output.precision value="4"/>
        <chargingstations-output value="data/EVGrid_chargingstations.xml"/>
        <summary-output value="data/summary-overview.xml"/>
        <tripinfo-output value="tripinfo.xml"/>
    </output>

    <processing>
        <lateral-resolution value="1"/>
    </processing>

    <battery>
        <device.battery.probability value="1"/>
    </battery>

    <traci_server>
        <remote-port value="50665"/>
    </traci_server>

    <gui_only>
        <gui-settings-file value="data/gui-settings.cfg"/>
    </gui_only>

</configuration>
-->

<tripinfos xmlns:xsi="http://www.w3.org/2001/XMLSchema-instance" xsi:noNamespaceSchemaLocation="http://sumo.dlr.de/xsd/tripinfo_file.xsd">
    <tripinfo id="V35.0" depart="0.00" departLane="gneE69_0" departPos="5.10" departPosLat="0.00" departSpeed="0.00" departDelay="0.00" arrival="22.00" arrivalLane="gneE69_0" arrivalPos="235.60" arrivalPosLat="0.00" arrivalSpeed="12.60" duration="22.00" routeLength="230.50" waitingTime="0.00" waitingCount="0" stopTime="0.00" timeLoss="4.05" rerouteNo="0" devices="tripinfo_V35.0 battery_V35.0" vType="DEFAULT_VEHTYPE" speedFactor="0.93" vaporized=""/>
    <tripinfo id="V58.0" depart="3.00" departLane="-gneE61_0" departPos="5.10" departPosLat="0.00" departSpeed="0.00" departDelay="3.00" arrival="25.00" arrivalLane="-gneE61_0" arrivalPos="239.60" arrivalPosLat="0.00" arrivalSpeed="13.34" duration="22.00" routeLength="234.50" waitingTime="0.00" waitingCount="0" stopTime="0.00" timeLoss="4.31" rerouteNo="0" devices="tripinfo_V58.0 battery_V58.0" vType="DEFAULT_VEHTYPE" speedFactor="1.00" vaporized=""/>
    <tripinfo id="V38.0" depart="0.00" departLane="-gneE57_0" departPos="5.10" departPosLat="0.00" departSpeed="0.00" departDelay="0.00" arrival="26.00" arrivalLane="-gneE107_0" arrivalPos="20.15" arrivalPosLat="0.00" arrivalSpeed="11.45" duration="26.00" routeLength="262.45" waitingTime="0.00" waitingCount="0" stopTime="0.00" timeLoss="6.07" rerouteNo="0" devices="tripinfo_V38.0 battery_V38.0" vType="DEFAULT_VEHTYPE" speedFactor="1.01" vaporized=""/>
    <tripinfo id="V88.0" depart="3.00" departLane="gneE107_0" departPos="5.10" departPosLat="0.00" departSpeed="0.00" departDelay="3.00" arrival="27.00" arrivalLane="-gneE78_0" arrivalPos="26.81" arrivalPosLat="0.00" arrivalSpeed="13.57" duration="24.00" routeLength="262.84" waitingTime="0.00" waitingCount="0" stopTime="0.00" timeLoss="5.02" rerouteNo="0" devices="tripinfo_V88.0 battery_V88.0" vType="DEFAULT_VEHTYPE" speedFactor="1.04" vaporized=""/>
    <tripinfo id="V78.0" depart="3.00" departLane="gneE67_0" departPos="5.10" departPosLat="0.00" departSpeed="0.00" departDelay="3.00" arrival="44.00" arrivalLane="gneE48_0" arrivalPos="235.60" arrivalPosLat="0.00" arrivalSpeed="13.47" duration="41.00" routeLength="479.13" waitingTime="0.00" waitingCount="0" stopTime="0.00" timeLoss="6.95" rerouteNo="0" devices="tripinfo_V78.0 battery_V78.0" vType="DEFAULT_VEHTYPE" speedFactor="1.03" vaporized=""/>
    <tripinfo id="V43.0" depart="0.00" departLane="gneE64_0" departPos="5.10" departPosLat="0.00" departSpeed="0.00" departDelay="0.00" arrival="54.00" arrivalLane="-gneE127_0" arrivalPos="204.53" arrivalPosLat="0.00" arrivalSpeed="14.65" duration="54.00" routeLength="738.50" waitingTime="0.00" waitingCount="0" stopTime="0.00" timeLoss="5.14" rerouteNo="0" devices="tripinfo_V43.0 battery_V43.0" vType="DEFAULT_VEHTYPE" speedFactor="1.10" vaporized=""/>
    <tripinfo id="V98.0" depart="0.00" departLane="-gneE71_0" departPos="5.10" departPosLat="0.00" departSpeed="0.00" departDelay="0.00" arrival="56.00" arrivalLane="-gneE106_0" arrivalPos="198.76" arrivalPosLat="0.00" arrivalSpeed="7.70" duration="56.00" routeLength="724.29" waitingTime="0.00" waitingCount="0" stopTime="0.00" timeLoss="9.06" rerouteNo="0" devices="tripinfo_V98.0 battery_V98.0" vType="DEFAULT_VEHTYPE" speedFactor="1.12" vaporized=""/>
    <tripinfo id="V29.0" depart="3.00" departLane="-gneE59_0" departPos="5.10" departPosLat="0.00" departSpeed="0.00" departDelay="3.00" arrival="60.00" arrivalLane="-gneE107_0" arrivalPos="20.15" arrivalPosLat="0.00" arrivalSpeed="11.51" duration="57.00" routeLength="268.65" waitingTime="22.00" waitingCount="1" stopTime="0.00" timeLoss="37.05" rerouteNo="0" devices="tripinfo_V29.0 battery_V29.0" vType="DEFAULT_VEHTYPE" speedFactor="0.98" vaporized=""/>
    <tripinfo id="V87.0" depart="0.00" departLane="gneE125_0" departPos="5.10" departPosLat="0.00" departSpeed="0.00" departDelay="0.00" arrival="61.00" arrivalLane="-gneE47_0" arrivalPos="230.60" arrivalPosLat="0.00" arrivalSpeed="13.44" duration="61.00" routeLength="716.94" waitingTime="0.00" waitingCount="0" stopTime="0.00" timeLoss="8.79" rerouteNo="0" devices="tripinfo_V87.0 battery_V87.0" vType="DEFAULT_VEHTYPE" speedFactor="1.00" vaporized=""/>
    <tripinfo id="V79.0" depart="0.00" departLane="-gneE48_0" departPos="5.10" departPosLat="0.00" departSpeed="0.00" departDelay="0.00" arrival="66.00" arrivalLane="-gneE67_0" arrivalPos="239.60" arrivalPosLat="0.00" arrivalSpeed="13.59" duration="66.00" routeLength="484.29" waitingTime="19.00" waitingCount="1" stopTime="0.00" timeLoss="29.02" rerouteNo="0" devices="tripinfo_V79.0 battery_V79.0" vType="DEFAULT_VEHTYPE" speedFactor="0.98" vaporized=""/>
    <tripinfo id="V99.0" depart="6.00" departLane="gneE107_0" departPos="5.10" departPosLat="0.00" departSpeed="0.00" departDelay="6.00" arrival="69.00" arrivalLane="-gneE53_0" arrivalPos="239.61" arrivalPosLat="0.00" arrivalSpeed="15.01" duration="63.00" routeLength="753.65" waitingTime="0.00" waitingCount="0" stopTime="0.00" timeLoss="11.45" rerouteNo="0" devices="tripinfo_V99.0 battery_V99.0" vType="DEFAULT_VEHTYPE" speedFactor="1.10" vaporized=""/>
    <tripinfo id="V11.0" depart="0.00" departLane="-gneE127_0" departPos="5.10" departPosLat="0.00" departSpeed="0.00" departDelay="0.00" arrival="73.00" arrivalLane="-gneE46_0" arrivalPos="239.59" arrivalPosLat="0.00" arrivalSpeed="14.63" duration="73.00" routeLength="945.61" waitingTime="0.00" waitingCount="0" stopTime="0.00" timeLoss="9.68" rerouteNo="0" devices="tripinfo_V11.0 battery_V11.0" vType="DEFAULT_VEHTYPE" speedFactor="1.08" vaporized=""/>
    <tripinfo id="V21.0" depart="3.00" departLane="-gneE49_0" departPos="5.10" departPosLat="0.00" departSpeed="0.00" departDelay="3.00" arrival="78.00" arrivalLane="gneE57_0" arrivalPos="234.83" arrivalPosLat="0.00" arrivalSpeed="13.33" duration="75.00" routeLength="719.62" waitingTime="6.00" waitingCount="1" stopTime="0.00" timeLoss="21.11" rerouteNo="0" devices="tripinfo_V21.0 battery_V21.0" vType="DEFAULT_VEHTYPE" speedFactor="0.99" vaporized=""/>
    <tripinfo id="V2.0" depart="0.00" departLane="gneE51_0" departPos="5.10" departPosLat="0.00" departSpeed="0.00" departDelay="0.00" arrival="82.00" arrivalLane="gneE46_0" arrivalPos="239.59" arrivalPosLat="0.00" arrivalSpeed="13.89" duration="82.00" routeLength="981.62" waitingTime="0.00" waitingCount="0" stopTime="0.00" timeLoss="13.31" rerouteNo="0" devices="tripinfo_V2.0 battery_V2.0" vType="DEFAULT_VEHTYPE" speedFactor="1.05" vaporized=""/>
    <tripinfo id="V20.0" depart="0.00" departLane="gneE46_0" departPos="5.10" departPosLat="0.00" departSpeed="0.00" departDelay="0.00" arrival="83.00" arrivalLane="-gneE59_0" arrivalPos="235.60" arrivalPosLat="0.00" arrivalSpeed="9.47" duration="83.00" routeLength="984.08" waitingTime="0.00" waitingCount="0" stopTime="0.00" timeLoss="17.92" rerouteNo="0" devices="tripinfo_V20.0 battery_V20.0" vType="DEFAULT_VEHTYPE" speedFactor="1.12" vaporized=""/>
    <tripinfo id="V32.0" depart="0.00" departLane="gneE67_0" departPos="5.10" departPosLat="0.00" departSpeed="0.00" departDelay="0.00" arrival="88.00" arrivalLane="-gneE53_0" arrivalPos="239.61" arrivalPosLat="0.00" arrivalSpeed="12.35" duration="88.00" routeLength="980.69" waitingTime="0.00" waitingCount="0" stopTime="0.00" timeLoss="9.78" rerouteNo="0" devices="tripinfo_V32.0 battery_V32.0" vType="DEFAULT_VEHTYPE" speedFactor="0.92" vaporized=""/>
    <tripinfo id="V60.0" depart="0.00" departLane="-gneE50_0" departPos="5.10" departPosLat="0.00" departSpeed="0.00" departDelay="0.00" arrival="91.00" arrivalLane="gneE127_0" arrivalPos="204.53" arrivalPosLat="0.00" arrivalSpeed="15.48" duration="91.00" routeLength="1191.19" waitingTime="0.00" waitingCount="0" stopTime="0.00" timeLoss="13.87" rerouteNo="0" devices="tripinfo_V60.0 battery_V60.0" vType="DEFAULT_VEHTYPE" speedFactor="1.14" vaporized=""/>
    <tripinfo id="V62.0" depart="9.00" departLane="gneE48_0" departPos="5.10" departPosLat="0.00" departSpeed="0.00" departDelay="9.00" arrival="92.00" arrivalLane="gneE50_0" arrivalPos="235.60" arrivalPosLat="0.00" arrivalSpeed="5.68" duration="83.00" routeLength="730.29" waitingTime="11.00" waitingCount="2" stopTime="0.00" timeLoss="27.76" rerouteNo="0" devices="tripinfo_V62.0 battery_V62.0" vType="DEFAULT_VEHTYPE" speedFactor="0.97" vaporized=""/>
    <tripinfo id="V57.0" depart="6.00" departLane="gneE47_0" departPos="5.10" departPosLat="0.00" departSpeed="0.00" departDelay="6.00" arrival="94.00" arrivalLane="-gneE106_0" arrivalPos="198.76" arrivalPosLat="0.00" arrivalSpeed="15.05" duration="88.00" routeLength="975.07" waitingTime="0.00" waitingCount="0" stopTime="0.00" timeLoss="21.88" rerouteNo="0" devices="tripinfo_V57.0 battery_V57.0" vType="DEFAULT_VEHTYPE" speedFactor="1.10" vaporized=""/>
    <tripinfo id="V47.0" depart="3.00" departLane="gneE69_0" departPos="5.10" departPosLat="0.00" departSpeed="0.00" departDelay="3.00" arrival="96.00" arrivalLane="-gneE59_0" arrivalPos="235.60" arrivalPosLat="0.00" arrivalSpeed="14.35" duration="93.00" routeLength="969.76" waitingTime="3.00" waitingCount="1" stopTime="0.00" timeLoss="26.86" rerouteNo="0" devices="tripinfo_V47.0 battery_V47.0" vType="DEFAULT_VEHTYPE" speedFactor="1.09" vaporized=""/>
    <tripinfo id="V40.0" depart="0.00" departLane="-gneE65_0" departPos="5.10" departPosLat="0.00" departSpeed="0.00" departDelay="0.00" arrival="98.00" arrivalLane="-gneE61_0" arrivalPos="239.60" arrivalPosLat="0.00" arrivalSpeed="13.81" duration="98.00" routeLength="1235.83" waitingTime="0.00" waitingCount="0" stopTime="0.00" timeLoss="9.62" rerouteNo="0" devices="tripinfo_V40.0 battery_V40.0" vType="DEFAULT_VEHTYPE" speedFactor="1.02" vaporized=""/>
    <tripinfo id="V71.0" depart="0.00" departLane="-gneE119_0" departPos="5.10" departPosLat="0.00" departSpeed="0.00" departDelay="0.00" arrival="98.00" arrivalLane="-gneE127_0" arrivalPos="204.53" arrivalPosLat="0.00" arrivalSpeed="13.03" duration="98.00" routeLength="1230.67" waitingTime="0.00" waitingCount="0" stopTime="0.00" timeLoss="9.99" rerouteNo="0" devices="tripinfo_V71.0 battery_V71.0" vType="DEFAULT_VEHTYPE" speedFactor="1.02" vaporized=""/>
    <tripinfo id="V82.0" depart="7.00" departLane="-gneE49_0" departPos="5.10" departPosLat="0.00" departSpeed="0.00" departDelay="7.00" arrival="98.00" arrivalLane="gneE67_0" arrivalPos="239.60" arrivalPosLat="0.00" arrivalSpeed="12.69" duration="91.00" routeLength="970.42" waitingTime="2.00" waitingCount="1" stopTime="0.00" timeLoss="18.19" rerouteNo="0" devices="tripinfo_V82.0 battery_V82.0" vType="DEFAULT_VEHTYPE" speedFactor="1.00" vaporized=""/>
    <tripinfo id="V44.0" depart="6.00" departLane="-gneE69_0" departPos="5.10" departPosLat="0.00" departSpeed="0.00" departDelay="6.00" arrival="99.00" arrivalLane="-gneE71_0" arrivalPos="235.60" arrivalPosLat="0.00" arrivalSpeed="12.36" duration="93.00" routeLength="973.96" waitingTime="0.00" waitingCount="0" stopTime="0.00" timeLoss="12.20" rerouteNo="0" devices="tripinfo_V44.0 battery_V44.0" vType="DEFAULT_VEHTYPE" speedFactor="0.90" vaporized=""/>
    <tripinfo id="V27.0" depart="0.00" departLane="-gneE70_0" departPos="5.10" departPosLat="0.00" departSpeed="0.00" departDelay="0.00" arrival="100.00" arrivalLane="gneE60_0" arrivalPos="239.60" arrivalPosLat="0.00" arrivalSpeed="13.56" duration="100.00" routeLength="967.92" waitingTime="14.00" waitingCount="1" stopTime="0.00" timeLoss="30.35" rerouteNo="0" devices="tripinfo_V27.0 battery_V27.0" vType="DEFAULT_VEHTYPE" speedFactor="1.02" vaporized=""/>
    <tripinfo id="V83.0" depart="0.00" departLane="-gneE63_0" departPos="5.10" departPosLat="0.00" departSpeed="0.00" departDelay="0.00" arrival="101.00" arrivalLane="gneE57_0" arrivalPos="234.83" arrivalPosLat="0.00" arrivalSpeed="13.54" duration="101.00" routeLength="1222.51" waitingTime="0.00" waitingCount="0" stopTime="0.00" timeLoss="12.12" rerouteNo="0" devices="tripinfo_V83.0 battery_V83.0" vType="DEFAULT_VEHTYPE" speedFactor="1.02" vaporized=""/>
    <tripinfo id="V39.0" depart="0.00" departLane="gneE127_0" departPos="5.10" departPosLat="0.00" departSpeed="0.00" departDelay="0.00" arrival="104.00" arrivalLane="-gneE67_0" arrivalPos="239.60" arrivalPosLat="0.00" arrivalSpeed="15.59" duration="104.00" routeLength="987.14" waitingTime="17.00" waitingCount="3" stopTime="0.00" timeLoss="41.32" rerouteNo="0" devices="tripinfo_V39.0 battery_V39.0" vType="DEFAULT_VEHTYPE" speedFactor="1.17" vaporized=""/>
    <tripinfo id="V84.0" depart="9.00" departLane="-gneE68_0" departPos="5.10" departPosLat="0.00" departSpeed="0.00" departDelay="9.00" arrival="104.00" arrivalLane="gneE117_0" arrivalPos="25.10" arrivalPosLat="0.00" arrivalSpeed="11.86" duration="95.00" routeLength="763.10" waitingTime="12.00" waitingCount="2" stopTime="0.00" timeLoss="36.61" rerouteNo="0" devices="tripinfo_V84.0 battery_V84.0" vType="DEFAULT_VEHTYPE" speedFactor="0.97" vaporized=""/>
    <tripinfo id="V5.0" depart="0.00" departLane="-gneE51_0" departPos="5.10" departPosLat="0.00" departSpeed="0.00" departDelay="0.00" arrival="107.00" arrivalLane="gneE65_0" arrivalPos="235.60" arrivalPosLat="0.00" arrivalSpeed="14.02" duration="107.00" routeLength="975.13" waitingTime="18.00" waitingCount="2" stopTime="0.00" timeLoss="41.19" rerouteNo="0" devices="tripinfo_V5.0 battery_V5.0" vType="DEFAULT_VEHTYPE" speedFactor="1.09" vaporized=""/>
    <tripinfo id="V7.0" depart="0.00" departLane="-gneE52_0" departPos="5.10" departPosLat="0.00" departSpeed="0.00" departDelay="0.00" arrival="107.00" arrivalLane="gneE71_0" arrivalPos="235.60" arrivalPosLat="0.00" arrivalSpeed="11.74" duration="107.00" routeLength="724.91" waitingTime="36.00" waitingCount="1" stopTime="0.00" timeLoss="47.61" rerouteNo="0" devices="tripinfo_V7.0 battery_V7.0" vType="DEFAULT_VEHTYPE" speedFactor="0.91" vaporized=""/>
    <tripinfo id="V34.0" depart="0.00" departLane="-gneE68_0" departPos="5.10" departPosLat="0.00" departSpeed="0.00" departDelay="0.00" arrival="108.00" arrivalLane="-gneE57_0" arrivalPos="234.83" arrivalPosLat="0.00" arrivalSpeed="15.62" duration="108.00" routeLength="973.94" waitingTime="16.00" waitingCount="3" stopTime="0.00" timeLoss="44.09" rerouteNo="0" devices="tripinfo_V34.0 battery_V34.0" vType="DEFAULT_VEHTYPE" speedFactor="1.13" vaporized=""/>
    <tripinfo id="V52.0" depart="3.00" departLane="gneE78_0" departPos="5.10" departPosLat="0.00" departSpeed="0.00" departDelay="3.00" arrival="108.00" arrivalLane="gneE60_0" arrivalPos="239.60" arrivalPosLat="0.00" arrivalSpeed="11.59" duration="105.00" routeLength="977.44" waitingTime="9.00" waitingCount="1" stopTime="0.00" timeLoss="22.83" rerouteNo="0" devices="tripinfo_V52.0 battery_V52.0" vType="DEFAULT_VEHTYPE" speedFactor="0.88" vaporized=""/>
    <tripinfo id="V30.0" depart="0.00" departLane="-gneE69_0" departPos="5.10" departPosLat="0.00" departSpeed="0.00" departDelay="0.00" arrival="112.00" arrivalLane="-gneE117_0" arrivalPos="25.10" arrivalPosLat="0.00" arrivalSpeed="11.21" duration="112.00" routeLength="970.34" waitingTime="10.00" waitingCount="1" stopTime="0.00" timeLoss="24.92" rerouteNo="0" devices="tripinfo_V30.0 battery_V30.0" vType="DEFAULT_VEHTYPE" speedFactor="0.83" vaporized=""/>
    <tripinfo id="V76.0" depart="0.00" departLane="gneE68_0" departPos="5.10" departPosLat="0.00" departSpeed="0.00" departDelay="0.00" arrival="113.00" arrivalLane="-gneE107_0" arrivalPos="20.15" arrivalPosLat="0.00" arrivalSpeed="12.39" duration="113.00" routeLength="1251.04" waitingTime="0.00" waitingCount="0" stopTime="0.00" timeLoss="15.68" rerouteNo="0" devices="tripinfo_V76.0 battery_V76.0" vType="DEFAULT_VEHTYPE" speedFactor="0.96" vaporized=""/>
    <tripinfo id="V69.0" depart="3.00" departLane="gneE127_0" departPos="5.10" departPosLat="0.00" departSpeed="0.00" departDelay="3.00" arrival="114.00" arrivalLane="-gneE70_0" arrivalPos="229.76" arrivalPosLat="0.00" arrivalSpeed="11.66" duration="111.00" routeLength="1234.74" waitingTime="0.00" waitingCount="0" stopTime="0.00" timeLoss="11.54" rerouteNo="0" devices="tripinfo_V69.0 battery_V69.0" vType="DEFAULT_VEHTYPE" speedFactor="0.91" vaporized=""/>
    <tripinfo id="V9.0" depart="10.00" departLane="gneE79_0" departPos="5.10" departPosLat="0.00" departSpeed="0.00" departDelay="10.00" arrival="114.00" arrivalLane="gneE59_0" arrivalPos="235.60" arrivalPosLat="0.00" arrivalSpeed="5.86" duration="104.00" routeLength="440.33" waitingTime="37.00" waitingCount="3" stopTime="0.00" timeLoss="71.96" rerouteNo="0" devices="tripinfo_V9.0 battery_V9.0" vType="DEFAULT_VEHTYPE" speedFactor="1.02" vaporized=""/>
    <tripinfo id="V36.0" depart="3.00" departLane="gneE117_0" departPos="5.10" departPosLat="0.00" departSpeed="0.00" departDelay="3.00" arrival="118.00" arrivalLane="gneE59_0" arrivalPos="235.60" arrivalPosLat="0.00" arrivalSpeed="8.51" duration="115.00" routeLength="980.50" waitingTime="12.00" waitingCount="1" stopTime="0.00" timeLoss="53.66" rerouteNo="0" devices="tripinfo_V36.0 battery_V36.0" vType="DEFAULT_VEHTYPE" speedFactor="1.18" vaporized=""/>
    <tripinfo id="V73.0" depart="3.00" departLane="gneE57_0" departPos="5.10" departPosLat="0.00" departSpeed="0.00" departDelay="3.00" arrival="118.00" arrivalLane="gneE119_0" arrivalPos="202.94" arrivalPosLat="0.00" arrivalSpeed="12.51" duration="115.00" routeLength="973.19" waitingTime="20.00" waitingCount="2" stopTime="0.00" timeLoss="40.27" rerouteNo="0" devices="tripinfo_V73.0 battery_V73.0" vType="DEFAULT_VEHTYPE" speedFactor="0.97" vaporized=""/>
    <tripinfo id="V26.0" depart="3.00" departLane="gneE48_0" departPos="5.10" departPosLat="0.00" departSpeed="0.00" departDelay="3.00" arrival="119.00" arrivalLane="-gneE60_0" arrivalPos="239.60" arrivalPosLat="0.00" arrivalSpeed="14.80" duration="116.00" routeLength="1480.88" waitingTime="0.00" waitingCount="0" stopTime="0.00" timeLoss="22.32" rerouteNo="0" devices="tripinfo_V26.0 battery_V26.0" vType="DEFAULT_VEHTYPE" speedFactor="1.16" vaporized=""/>
    <tripinfo id="V64.0" depart="6.00" departLane="-gneE127_0" departPos="5.10" departPosLat="0.00" departSpeed="0.00" departDelay="6.00" arrival="119.00" arrivalLane="-gneE64_0" arrivalPos="239.60" arrivalPosLat="0.00" arrivalSpeed="14.40" duration="113.00" routeLength="1434.66" waitingTime="0.00" waitingCount="0" stopTime="0.00" timeLoss="18.41" rerouteNo="0" devices="tripinfo_V64.0 battery_V64.0" vType="DEFAULT_VEHTYPE" speedFactor="1.12" vaporized=""/>
    <tripinfo id="V81.0" depart="6.00" departLane="-gneE57_0" departPos="5.10" departPosLat="0.00" departSpeed="0.00" departDelay="6.00" arrival="120.00" arrivalLane="gneE71_0" arrivalPos="235.60" arrivalPosLat="0.00" arrivalSpeed="13.64" duration="114.00" routeLength="1213.33" waitingTime="3.00" waitingCount="1" stopTime="0.00" timeLoss="26.35" rerouteNo="0" devices="tripinfo_V81.0 battery_V81.0" vType="DEFAULT_VEHTYPE" speedFactor="1.03" vaporized=""/>
    <tripinfo id="V74.0" depart="0.00" departLane="-gneE106_0" departPos="5.10" departPosLat="0.00" departSpeed="0.00" departDelay="0.00" arrival="121.00" arrivalLane="-gneE67_0" arrivalPos="239.60" arrivalPosLat="0.00" arrivalSpeed="12.58" duration="121.00" routeLength="1198.81" waitingTime="14.00" waitingCount="1" stopTime="0.00" timeLoss="27.78" rerouteNo="0" devices="tripinfo_V74.0 battery_V74.0" vType="DEFAULT_VEHTYPE" speedFactor="0.94" vaporized=""/>
    <tripinfo id="V14.0" depart="0.00" departLane="gneE78_0" departPos="5.10" departPosLat="0.00" departSpeed="0.00" departDelay="0.00" arrival="122.00" arrivalLane="gneE64_0" arrivalPos="239.60" arrivalPosLat="0.00" arrivalSpeed="13.52" duration="122.00" routeLength="1471.29" waitingTime="0.00" waitingCount="0" stopTime="0.00" timeLoss="19.35" rerouteNo="0" devices="tripinfo_V14.0 battery_V14.0" vType="DEFAULT_VEHTYPE" speedFactor="1.05" vaporized=""/>
    <tripinfo id="V63.0" depart="6.00" departLane="-gneE68_0" departPos="5.10" departPosLat="0.00" departSpeed="0.00" departDelay="6.00" arrival="122.00" arrivalLane="-gneE61_0" arrivalPos="239.60" arrivalPosLat="0.00" arrivalSpeed="13.98" duration="116.00" routeLength="1228.17" waitingTime="9.00" waitingCount="3" stopTime="0.00" timeLoss="32.47" rerouteNo="0" devices="tripinfo_V63.0 battery_V63.0" vType="DEFAULT_VEHTYPE" speedFactor="1.08" vaporized=""/>
    <tripinfo id="V46.0" depart="6.00" departLane="gneE48_0" departPos="5.10" departPosLat="0.00" departSpeed="0.00" departDelay="6.00" arrival="124.00" arrivalLane="-gneE117_0" arrivalPos="25.10" arrivalPosLat="0.00" arrivalSpeed="13.26" duration="118.00" routeLength="1219.99" waitingTime="5.00" waitingCount="1" stopTime="0.00" timeLoss="23.68" rerouteNo="0" devices="tripinfo_V46.0 battery_V46.0" vType="DEFAULT_VEHTYPE" speedFactor="0.96" vaporized=""/>
    <tripinfo id="V70.0" depart="9.00" departLane="gneE47_0" departPos="5.10" departPosLat="0.00" departSpeed="0.00" departDelay="9.00" arrival="127.00" arrivalLane="gneE67_0" arrivalPos="239.60" arrivalPosLat="0.00" arrivalSpeed="14.07" duration="118.00" routeLength="1210.05" waitingTime="7.00" waitingCount="1" stopTime="0.00" timeLoss="31.10" rerouteNo="0" devices="tripinfo_V70.0 battery_V70.0" vType="DEFAULT_VEHTYPE" speedFactor="1.04" vaporized=""/>
    <tripinfo id="V61.0" depart="0.00" departLane="gneE61_0" departPos="5.10" departPosLat="0.00" departSpeed="0.00" departDelay="0.00" arrival="128.00" arrivalLane="-gneE53_0" arrivalPos="239.61" arrivalPosLat="0.00" arrivalSpeed="7.18" duration="128.00" routeLength="1469.94" waitingTime="0.00" waitingCount="0" stopTime="0.00" timeLoss="22.39" rerouteNo="0" devices="tripinfo_V61.0 battery_V61.0" vType="DEFAULT_VEHTYPE" speedFactor="1.02" vaporized=""/>
    <tripinfo id="V68.0" depart="3.00" departLane="gneE60_0" departPos="5.10" departPosLat="0.00" departSpeed="0.00" departDelay="3.00" arrival="129.00" arrivalLane="-gneE50_0" arrivalPos="235.60" arrivalPosLat="0.00" arrivalSpeed="7.03" duration="126.00" routeLength="971.10" waitingTime="20.00" waitingCount="2" stopTime="0.00" timeLoss="44.29" rerouteNo="0" devices="tripinfo_V68.0 battery_V68.0" vType="DEFAULT_VEHTYPE" speedFactor="0.88" vaporized=""/>
    <tripinfo id="V80.0" depart="6.00" departLane="gneE60_0" departPos="5.10" departPosLat="0.00" departSpeed="0.00" departDelay="6.00" arrival="129.00" arrivalLane="-gneE48_0" arrivalPos="235.60" arrivalPosLat="0.00" arrivalSpeed="8.09" duration="123.00" routeLength="1470.67" waitingTime="0.00" waitingCount="0" stopTime="0.00" timeLoss="23.79" rerouteNo="0" devices="tripinfo_V80.0 battery_V80.0" vType="DEFAULT_VEHTYPE" speedFactor="1.09" vaporized=""/>
    <tripinfo id="V53.0" depart="0.00" departLane="gneE57_0" departPos="5.10" departPosLat="0.00" departSpeed="0.00" departDelay="0.00" arrival="130.00" arrivalLane="gneE107_0" arrivalPos="20.15" arrivalPosLat="0.00" arrivalSpeed="11.27" duration="130.00" routeLength="975.43" waitingTime="9.00" waitingCount="2" stopTime="0.00" timeLoss="43.84" rerouteNo="0" devices="tripinfo_V53.0 battery_V53.0" vType="DEFAULT_VEHTYPE" speedFactor="0.85" vaporized=""/>
    <tripinfo id="V59.0" depart="3.00" departLane="-gneE68_0" departPos="5.10" departPosLat="0.00" departSpeed="0.00" departDelay="3.00" arrival="131.00" arrivalLane="gneE60_0" arrivalPos="239.60" arrivalPosLat="0.00" arrivalSpeed="13.54" duration="128.00" routeLength="1229.11" waitingTime="11.00" waitingCount="3" stopTime="0.00" timeLoss="37.87" rerouteNo="0" devices="tripinfo_V59.0 battery_V59.0" vType="DEFAULT_VEHTYPE" speedFactor="1.00" vaporized=""/>
    <tripinfo id="V94.0" depart="9.00" departLane="-gneE47_0" departPos="5.10" departPosLat="0.00" departSpeed="0.00" departDelay="9.00" arrival="132.00" arrivalLane="-gneE70_0" arrivalPos="229.76" arrivalPosLat="0.00" arrivalSpeed="14.91" duration="123.00" routeLength="1463.04" waitingTime="0.00" waitingCount="0" stopTime="0.00" timeLoss="23.65" rerouteNo="0" devices="tripinfo_V94.0 battery_V94.0" vType="DEFAULT_VEHTYPE" speedFactor="1.09" vaporized=""/>
    <tripinfo id="V50.0" depart="3.00" departLane="gneE70_0" departPos="5.10" departPosLat="0.00" departSpeed="0.00" departDelay="3.00" arrival="133.00" arrivalLane="gneE50_0" arrivalPos="235.60" arrivalPosLat="0.00" arrivalSpeed="12.87" duration="130.00" routeLength="1215.13" waitingTime="14.00" waitingCount="2" stopTime="0.00" timeLoss="40.39" rerouteNo="0" devices="tripinfo_V50.0 battery_V50.0" vType="DEFAULT_VEHTYPE" speedFactor="1.00" vaporized=""/>
    <tripinfo id="V1.0" depart="3.00" departLane="-gneE47_0" departPos="5.10" departPosLat="0.00" departSpeed="0.00" departDelay="3.00" arrival="134.00" arrivalLane="-gneE60_0" arrivalPos="239.60" arrivalPosLat="0.00" arrivalSpeed="12.89" duration="131.00" routeLength="1475.55" waitingTime="0.00" waitingCount="0" stopTime="0.00" timeLoss="15.51" rerouteNo="0" devices="tripinfo_V1.0 battery_V1.0" vType="DEFAULT_VEHTYPE" speedFactor="0.94" vaporized=""/>
    <tripinfo id="V18.0" depart="0.00" departLane="gneE47_0" departPos="5.10" departPosLat="0.00" departSpeed="0.00" departDelay="0.00" arrival="134.00" arrivalLane="-gneE71_0" arrivalPos="235.60" arrivalPosLat="0.00" arrivalSpeed="15.00" duration="134.00" routeLength="1474.12" waitingTime="10.00" waitingCount="3" stopTime="0.00" timeLoss="34.58" rerouteNo="0" devices="tripinfo_V18.0 battery_V18.0" vType="DEFAULT_VEHTYPE" speedFactor="1.09" vaporized=""/>
    <tripinfo id="V65.0" depart="3.00" departLane="-gneE46_0" departPos="5.10" departPosLat="0.00" departSpeed="0.00" departDelay="3.00" arrival="134.00" arrivalLane="-gneE79_0" arrivalPos="200.80" arrivalPosLat="0.00" arrivalSpeed="13.84" duration="131.00" routeLength="930.65" waitingTime="33.00" waitingCount="2" stopTime="0.00" timeLoss="63.79" rerouteNo="0" devices="tripinfo_V65.0 battery_V65.0" vType="DEFAULT_VEHTYPE" speedFactor="1.02" vaporized=""/>
    <tripinfo id="V85.0" depart="9.00" departLane="gneE127_0" departPos="5.10" departPosLat="0.00" departSpeed="0.00" departDelay="9.00" arrival="134.00" arrivalLane="-gneE52_0" arrivalPos="235.59" arrivalPosLat="0.00" arrivalSpeed="10.97" duration="125.00" routeLength="1228.17" waitingTime="8.00" waitingCount="2" stopTime="0.00" timeLoss="46.48" rerouteNo="0" devices="tripinfo_V85.0 battery_V85.0" vType="DEFAULT_VEHTYPE" speedFactor="1.15" vaporized=""/>
    <tripinfo id="V4.0" depart="3.00" departLane="-gneE69_0" departPos="5.10" departPosLat="0.00" departSpeed="0.00" departDelay="3.00" arrival="136.00" arrivalLane="-gneE50_0" arrivalPos="235.60" arrivalPosLat="0.00" arrivalSpeed="5.27" duration="133.00" routeLength="1214.04" waitingTime="12.00" waitingCount="1" stopTime="0.00" timeLoss="42.36" rerouteNo="0" devices="tripinfo_V4.0 battery_V4.0" vType="DEFAULT_VEHTYPE" speedFactor="0.99" vaporized=""/>
    <tripinfo id="V89.0" depart="9.00" departLane="gneE59_0" departPos="5.10" departPosLat="0.00" departSpeed="0.00" departDelay="9.00" arrival="136.00" arrivalLane="gneE69_0" arrivalPos="235.60" arrivalPosLat="0.00" arrivalSpeed="13.70" duration="127.00" routeLength="724.92" waitingTime="55.00" waitingCount="2" stopTime="0.00" timeLoss="73.32" rerouteNo="0" devices="tripinfo_V89.0 battery_V89.0" vType="DEFAULT_VEHTYPE" speedFactor="1.01" vaporized=""/>
    <tripinfo id="V96.0" depart="3.00" departLane="gneE46_0" departPos="5.10" departPosLat="0.00" departSpeed="0.00" departDelay="3.00" arrival="136.00" arrivalLane="-gneE70_0" arrivalPos="229.76" arrivalPosLat="0.00" arrivalSpeed="13.64" duration="133.00" routeLength="1472.90" waitingTime="6.00" waitingCount="1" stopTime="0.00" timeLoss="25.49" rerouteNo="0" devices="tripinfo_V96.0 battery_V96.0" vType="DEFAULT_VEHTYPE" speedFactor="1.01" vaporized=""/>
    <tripinfo id="V24.0" depart="0.00" departLane="gneE117_0" departPos="5.10" departPosLat="0.00" departSpeed="0.00" departDelay="0.00" arrival="138.00" arrivalLane="gneE49_0" arrivalPos="235.60" arrivalPosLat="0.00" arrivalSpeed="12.22" duration="138.00" routeLength="1230.29" waitingTime="13.00" waitingCount="1" stopTime="0.00" timeLoss="40.90" rerouteNo="0" devices="tripinfo_V24.0 battery_V24.0" vType="DEFAULT_VEHTYPE" speedFactor="0.94" vaporized=""/>
    <tripinfo id="V56.0" depart="0.00" departLane="gneE60_0" departPos="5.10" departPosLat="0.00" departSpeed="0.00" departDelay="0.00" arrival="139.00" arrivalLane="-gneE67_0" arrivalPos="239.60" arrivalPosLat="0.00" arrivalSpeed="12.97" duration="139.00" routeLength="1724.33" waitingTime="0.00" waitingCount="0" stopTime="0.00" timeLoss="14.85" rerouteNo="0" devices="tripinfo_V56.0 battery_V56.0" vType="DEFAULT_VEHTYPE" speedFactor="1.02" vaporized=""/>