<?xml version="1.0" encoding="UTF-8"?>

<!-- generated on 03/22/21 16:39:44 by Eclipse SUMO GUI Version v1_8_0+1742-ceeb7fe3f3
<configuration xmlns:xsi="http://www.w3.org/2001/XMLSchema-instance" xsi:noNamespaceSchemaLocation="http://sumo.dlr.de/xsd/sumoConfiguration.xsd">

    <input>
        <net-file value="data/EVGrid.net.xml"/>
        <route-files value="data/electricvehicles.rou.xml"/>
        <additional-files value="data/EVGrid_additionals.add.xml"/>
    </input>

    <output>
        <battery-output value="data/battery.out.xml"/>
        <battery-output.precision value="4"/>
        <chargingstations-output value="data/EVGrid_chargingstations.xml"/>
        <summary-output value="data/summary-overview.xml"/>
        <tripinfo-output value="tripinfo.xml"/>
    </output>

    <processing>
        <lateral-resolution value="1"/>
    </processing>

    <battery>
        <device.battery.probability value="1"/>
    </battery>

    <traci_server>
        <remote-port value="52176"/>
    </traci_server>

    <gui_only>
        <gui-settings-file value="data/gui-settings.cfg"/>
    </gui_only>

</configuration>
-->

<tripinfos xmlns:xsi="http://www.w3.org/2001/XMLSchema-instance" xsi:noNamespaceSchemaLocation="http://sumo.dlr.de/xsd/tripinfo_file.xsd">
    <tripinfo id="V22.0" depart="0.00" departLane="-gneE79_0" departPos="5.10" departPosLat="0.00" departSpeed="0.00" departDelay="0.00" arrival="19.00" arrivalLane="-gneE79_0" arrivalPos="200.78" arrivalPosLat="0.00" arrivalSpeed="12.79" duration="19.00" routeLength="195.68" waitingTime="0.00" waitingCount="0" stopTime="0.00" timeLoss="3.49" rerouteNo="0" devices="tripinfo_V22.0 battery_V22.0" vType="DEFAULT_VEHTYPE" speedFactor="0.93" vaporized=""/>
    <tripinfo id="V28.0" depart="0.00" departLane="gneE70_0" departPos="5.10" departPosLat="0.00" departSpeed="0.00" departDelay="0.00" arrival="21.00" arrivalLane="gneE70_0" arrivalPos="235.60" arrivalPosLat="0.00" arrivalSpeed="13.74" duration="21.00" routeLength="230.50" waitingTime="0.00" waitingCount="0" stopTime="0.00" timeLoss="3.71" rerouteNo="0" devices="tripinfo_V28.0 battery_V28.0" vType="DEFAULT_VEHTYPE" speedFactor="1.01" vaporized=""/>
    <tripinfo id="V37.0" depart="0.00" departLane="-gneE47_0" departPos="5.10" departPosLat="0.00" departSpeed="0.00" departDelay="0.00" arrival="25.00" arrivalLane="gneE84_0" arrivalPos="15.83" arrivalPosLat="0.00" arrivalSpeed="8.49" duration="25.00" routeLength="261.66" waitingTime="0.00" waitingCount="0" stopTime="0.00" timeLoss="8.01" rerouteNo="0" devices="tripinfo_V37.0 battery_V37.0" vType="DEFAULT_VEHTYPE" speedFactor="1.15" vaporized=""/>
    <tripinfo id="V86.0" depart="15.00" departLane="-gneE70_0" departPos="5.10" departPosLat="0.00" departSpeed="0.00" departDelay="15.00" arrival="36.00" arrivalLane="-gneE70_0" arrivalPos="235.60" arrivalPosLat="0.00" arrivalSpeed="12.53" duration="21.00" routeLength="230.50" waitingTime="0.00" waitingCount="0" stopTime="0.00" timeLoss="3.42" rerouteNo="0" devices="tripinfo_V86.0 battery_V86.0" vType="DEFAULT_VEHTYPE" speedFactor="0.98" vaporized=""/>
    <tripinfo id="V89.0" depart="9.00" departLane="gneE66_0" departPos="5.10" departPosLat="0.00" departSpeed="0.00" departDelay="9.00" arrival="36.00" arrivalLane="gneE66_0" arrivalPos="239.60" arrivalPosLat="0.00" arrivalSpeed="5.75" duration="27.00" routeLength="234.50" waitingTime="0.00" waitingCount="0" stopTime="0.00" timeLoss="10.07" rerouteNo="0" devices="tripinfo_V89.0 battery_V89.0" vType="DEFAULT_VEHTYPE" speedFactor="1.01" vaporized=""/>
    <tripinfo id="V20.0" depart="0.00" departLane="gneE60_0" departPos="5.10" departPosLat="0.00" departSpeed="0.00" departDelay="0.00" arrival="39.00" arrivalLane="gneE61_0" arrivalPos="239.60" arrivalPosLat="0.00" arrivalSpeed="15.28" duration="39.00" routeLength="476.68" waitingTime="0.00" waitingCount="0" stopTime="0.00" timeLoss="8.18" rerouteNo="0" devices="tripinfo_V20.0 battery_V20.0" vType="DEFAULT_VEHTYPE" speedFactor="1.12" vaporized=""/>
    <tripinfo id="V5.0" depart="3.00" departLane="gneE54_0" departPos="5.10" departPosLat="0.00" departSpeed="0.00" departDelay="3.00" arrival="43.00" arrivalLane="-gneE79_0" arrivalPos="200.78" arrivalPosLat="0.00" arrivalSpeed="14.86" duration="40.00" routeLength="440.31" waitingTime="0.00" waitingCount="0" stopTime="0.00" timeLoss="10.27" rerouteNo="0" devices="tripinfo_V5.0 battery_V5.0" vType="DEFAULT_VEHTYPE" speedFactor="1.09" vaporized=""/>
    <tripinfo id="V49.0" depart="3.00" departLane="-gneE54_0" departPos="5.10" departPosLat="0.00" departSpeed="0.00" departDelay="3.00" arrival="47.00" arrivalLane="gneE53_0" arrivalPos="239.60" arrivalPosLat="0.00" arrivalSpeed="7.63" duration="44.00" routeLength="484.29" waitingTime="0.00" waitingCount="0" stopTime="0.00" timeLoss="9.71" rerouteNo="0" devices="tripinfo_V49.0 battery_V49.0" vType="DEFAULT_VEHTYPE" speedFactor="1.04" vaporized=""/>
    <tripinfo id="V58.0" depart="9.00" departLane="-gneE60_0" departPos="5.10" departPosLat="0.00" departSpeed="0.00" departDelay="9.00" arrival="51.00" arrivalLane="-gneE51_0" arrivalPos="235.60" arrivalPosLat="0.00" arrivalSpeed="12.64" duration="42.00" routeLength="484.29" waitingTime="0.00" waitingCount="0" stopTime="0.00" timeLoss="6.61" rerouteNo="0" devices="tripinfo_V58.0 battery_V58.0" vType="DEFAULT_VEHTYPE" speedFactor="1.00" vaporized=""/>
    <tripinfo id="V83.0" depart="0.00" departLane="gneE84_0" departPos="5.10" departPosLat="0.00" departSpeed="0.00" departDelay="0.00" arrival="53.00" arrivalLane="gneE57_0" arrivalPos="235.60" arrivalPosLat="0.00" arrivalSpeed="8.04" duration="53.00" routeLength="477.33" waitingTime="1.00" waitingCount="1" stopTime="0.00" timeLoss="18.76" rerouteNo="0" devices="tripinfo_V83.0 battery_V83.0" vType="DEFAULT_VEHTYPE" speedFactor="1.02" vaporized=""/>
    <tripinfo id="V98.0" depart="15.00" departLane="-gneE51_0" departPos="5.10" departPosLat="0.00" departSpeed="0.00" departDelay="15.00" arrival="58.00" arrivalLane="-gneE57_0" arrivalPos="235.60" arrivalPosLat="0.00" arrivalSpeed="11.62" duration="43.00" routeLength="475.13" waitingTime="0.00" waitingCount="0" stopTime="0.00" timeLoss="11.08" rerouteNo="0" devices="tripinfo_V98.0 battery_V98.0" vType="DEFAULT_VEHTYPE" speedFactor="1.12" vaporized=""/>
    <tripinfo id="V24.0" depart="0.00" departLane="-gneE57_0" departPos="5.10" departPosLat="0.00" departSpeed="0.00" departDelay="0.00" arrival="60.00" arrivalLane="gneE83_0" arrivalPos="7.95" arrivalPosLat="0.00" arrivalSpeed="7.53" duration="60.00" routeLength="503.92" waitingTime="6.00" waitingCount="1" stopTime="0.00" timeLoss="20.27" rerouteNo="0" devices="tripinfo_V24.0 battery_V24.0" vType="DEFAULT_VEHTYPE" speedFactor="0.94" vaporized=""/>
    <tripinfo id="V70.0" depart="3.00" departLane="-gneE63_0" departPos="5.10" departPosLat="0.00" departSpeed="0.00" departDelay="3.00" arrival="63.00" arrivalLane="-gneE49_0" arrivalPos="235.60" arrivalPosLat="0.00" arrivalSpeed="13.49" duration="60.00" routeLength="734.29" waitingTime="0.00" waitingCount="0" stopTime="0.00" timeLoss="7.34" rerouteNo="0" devices="tripinfo_V70.0 battery_V70.0" vType="DEFAULT_VEHTYPE" speedFactor="1.04" vaporized=""/>
    <tripinfo id="V73.0" depart="0.00" departLane="-gneE61_0" departPos="5.10" departPosLat="0.00" departSpeed="0.00" departDelay="0.00" arrival="63.00" arrivalLane="gneE52_0" arrivalPos="235.60" arrivalPosLat="0.00" arrivalSpeed="12.76" duration="63.00" routeLength="731.84" waitingTime="0.00" waitingCount="0" stopTime="0.00" timeLoss="8.05" rerouteNo="0" devices="tripinfo_V73.0 battery_V73.0" vType="DEFAULT_VEHTYPE" speedFactor="0.97" vaporized=""/>
    <tripinfo id="V19.0" depart="3.00" departLane="-gneE50_0" departPos="5.10" departPosLat="0.00" departSpeed="0.00" departDelay="3.00" arrival="67.00" arrivalLane="-gneE48_0" arrivalPos="235.60" arrivalPosLat="0.00" arrivalSpeed="6.77" duration="64.00" routeLength="725.13" waitingTime="0.00" waitingCount="0" stopTime="0.00" timeLoss="12.22" rerouteNo="0" devices="tripinfo_V19.0 battery_V19.0" vType="DEFAULT_VEHTYPE" speedFactor="1.03" vaporized=""/>
    <tripinfo id="V74.0" depart="0.00" departLane="-gneE71_0" departPos="5.10" departPosLat="0.00" departSpeed="0.00" departDelay="0.00" arrival="67.00" arrivalLane="gneE52_0" arrivalPos="235.60" arrivalPosLat="0.00" arrivalSpeed="12.47" duration="67.00" routeLength="724.92" waitingTime="0.00" waitingCount="0" stopTime="0.00" timeLoss="9.85" rerouteNo="0" devices="tripinfo_V74.0 battery_V74.0" vType="DEFAULT_VEHTYPE" speedFactor="0.94" vaporized=""/>
    <tripinfo id="V25.0" depart="3.00" departLane="-gneE70_0" departPos="5.10" departPosLat="0.00" departSpeed="0.00" departDelay="3.00" arrival="71.00" arrivalLane="gneE65_0" arrivalPos="235.60" arrivalPosLat="0.00" arrivalSpeed="12.46" duration="68.00" routeLength="724.92" waitingTime="0.00" waitingCount="0" stopTime="0.00" timeLoss="10.19" rerouteNo="0" devices="tripinfo_V25.0 battery_V25.0" vType="DEFAULT_VEHTYPE" speedFactor="0.94" vaporized=""/>
    <tripinfo id="V96.0" depart="12.00" departLane="-gneE51_0" departPos="5.10" departPosLat="0.00" departSpeed="0.00" departDelay="12.00" arrival="72.00" arrivalLane="-gneE79_0" arrivalPos="200.78" arrivalPosLat="0.00" arrivalSpeed="14.02" duration="60.00" routeLength="690.31" waitingTime="0.00" waitingCount="0" stopTime="0.00" timeLoss="10.17" rerouteNo="0" devices="tripinfo_V96.0 battery_V96.0" vType="DEFAULT_VEHTYPE" speedFactor="1.01" vaporized=""/>
    <tripinfo id="V52.0" depart="6.00" departLane="-gneE70_0" departPos="5.10" departPosLat="0.00" departSpeed="0.00" departDelay="6.00" arrival="75.00" arrivalLane="-gneE59_0" arrivalPos="235.60" arrivalPosLat="0.00" arrivalSpeed="11.36" duration="69.00" routeLength="725.13" waitingTime="0.00" waitingCount="0" stopTime="0.00" timeLoss="7.66" rerouteNo="0" devices="tripinfo_V52.0 battery_V52.0" vType="DEFAULT_VEHTYPE" speedFactor="0.88" vaporized=""/>
    <tripinfo id="V2.0" depart="0.00" departLane="gneE48_0" departPos="5.10" departPosLat="0.00" departSpeed="0.00" departDelay="0.00" arrival="81.00" arrivalLane="gneE71_0" arrivalPos="235.60" arrivalPosLat="0.00" arrivalSpeed="14.05" duration="81.00" routeLength="974.92" waitingTime="0.00" waitingCount="0" stopTime="0.00" timeLoss="12.06" rerouteNo="0" devices="tripinfo_V2.0 battery_V2.0" vType="DEFAULT_VEHTYPE" speedFactor="1.05" vaporized=""/>
    <tripinfo id="V90.0" depart="0.00" departLane="-gneE62_0" departPos="5.10" departPosLat="0.00" departSpeed="0.00" departDelay="0.00" arrival="82.00" arrivalLane="-gneE51_0" arrivalPos="235.60" arrivalPosLat="0.00" arrivalSpeed="13.34" duration="82.00" routeLength="981.63" waitingTime="0.00" waitingCount="0" stopTime="0.00" timeLoss="10.73" rerouteNo="0" devices="tripinfo_V90.0 battery_V90.0" vType="DEFAULT_VEHTYPE" speedFactor="1.02" vaporized=""/>
    <tripinfo id="V36.0" depart="0.00" departLane="-gneE63_0" departPos="5.10" departPosLat="0.00" departSpeed="0.00" departDelay="0.00" arrival="83.00" arrivalLane="-gneE50_0" arrivalPos="235.60" arrivalPosLat="0.00" arrivalSpeed="5.66" duration="83.00" routeLength="984.08" waitingTime="1.00" waitingCount="1" stopTime="0.00" timeLoss="21.61" rerouteNo="0" devices="tripinfo_V36.0 battery_V36.0" vType="DEFAULT_VEHTYPE" speedFactor="1.18" vaporized=""/>
    <tripinfo id="V79.0" depart="0.00" departLane="-gneE68_0" departPos="5.10" departPosLat="0.00" departSpeed="0.00" departDelay="0.00" arrival="86.00" arrivalLane="-gneE64_0" arrivalPos="239.60" arrivalPosLat="0.00" arrivalSpeed="12.55" duration="86.00" routeLength="973.55" waitingTime="0.00" waitingCount="0" stopTime="0.00" timeLoss="12.17" rerouteNo="0" devices="tripinfo_V79.0 battery_V79.0" vType="DEFAULT_VEHTYPE" speedFactor="0.98" vaporized=""/>
    <tripinfo id="V67.0" depart="0.00" departLane="-gneE59_0" departPos="5.10" departPosLat="0.00" departSpeed="0.00" departDelay="0.00" arrival="87.00" arrivalLane="gneE69_0" arrivalPos="235.60" arrivalPosLat="0.00" arrivalSpeed="12.24" duration="87.00" routeLength="969.76" waitingTime="0.00" waitingCount="0" stopTime="0.00" timeLoss="11.53" rerouteNo="0" devices="tripinfo_V67.0 battery_V67.0" vType="DEFAULT_VEHTYPE" speedFactor="0.94" vaporized=""/>
    <tripinfo id="V87.0" depart="3.00" departLane="gneE49_0" departPos="5.10" departPosLat="0.00" departSpeed="0.00" departDelay="3.00" arrival="88.00" arrivalLane="-gneE63_0" arrivalPos="239.60" arrivalPosLat="0.00" arrivalSpeed="13.25" duration="85.00" routeLength="976.26" waitingTime="0.00" waitingCount="0" stopTime="0.00" timeLoss="12.12" rerouteNo="0" devices="tripinfo_V87.0 battery_V87.0" vType="DEFAULT_VEHTYPE" speedFactor="1.00" vaporized=""/>
    <tripinfo id="V93.0" depart="0.00" departLane="gneE47_0" departPos="5.10" departPosLat="0.00" departSpeed="0.00" departDelay="0.00" arrival="88.00" arrivalLane="-gneE54_0" arrivalPos="235.60" arrivalPosLat="0.00" arrivalSpeed="11.86" duration="88.00" routeLength="977.03" waitingTime="0.00" waitingCount="0" stopTime="0.00" timeLoss="9.41" rerouteNo="0" devices="tripinfo_V93.0 battery_V93.0" vType="DEFAULT_VEHTYPE" speedFactor="0.92" vaporized=""/>
    <tripinfo id="V84.0" depart="6.00" departLane="-gneE63_0" departPos="5.10" departPosLat="0.00" departSpeed="0.00" departDelay="6.00" arrival="90.00" arrivalLane="-gneE48_0" arrivalPos="235.60" arrivalPosLat="0.00" arrivalSpeed="12.47" duration="84.00" routeLength="984.29" waitingTime="0.00" waitingCount="0" stopTime="0.00" timeLoss="9.61" rerouteNo="0" devices="tripinfo_V84.0 battery_V84.0" vType="DEFAULT_VEHTYPE" speedFactor="0.97" vaporized=""/>
    <tripinfo id="V56.0" depart="6.00" departLane="-gneE60_0" departPos="5.10" departPosLat="0.00" departSpeed="0.00" departDelay="6.00" arrival="92.00" arrivalLane="gneE46_0" arrivalPos="239.59" arrivalPosLat="0.00" arrivalSpeed="13.63" duration="86.00" routeLength="985.83" waitingTime="0.00" waitingCount="0" stopTime="0.00" timeLoss="14.54" rerouteNo="0" devices="tripinfo_V56.0 battery_V56.0" vType="DEFAULT_VEHTYPE" speedFactor="1.02" vaporized=""/>
    <tripinfo id="V68.0" depart="0.00" departLane="gneE52_0" departPos="5.10" departPosLat="0.00" departSpeed="0.00" departDelay="0.00" arrival="92.00" arrivalLane="gneE79_0" arrivalPos="200.78" arrivalPosLat="0.00" arrivalSpeed="12.10" duration="92.00" routeLength="981.40" waitingTime="0.00" waitingCount="0" stopTime="0.00" timeLoss="9.75" rerouteNo="0" devices="tripinfo_V68.0 battery_V68.0" vType="DEFAULT_VEHTYPE" speedFactor="0.88" vaporized=""/>
    <tripinfo id="V59.0" depart="6.00" departLane="gneE48_0" departPos="5.10" departPosLat="0.00" departSpeed="0.00" departDelay="6.00" arrival="93.00" arrivalLane="gneE67_0" arrivalPos="239.60" arrivalPosLat="0.00" arrivalSpeed="13.02" duration="87.00" routeLength="965.94" waitingTime="0.00" waitingCount="0" stopTime="0.00" timeLoss="14.14" rerouteNo="0" devices="tripinfo_V59.0 battery_V59.0" vType="DEFAULT_VEHTYPE" speedFactor="1.00" vaporized=""/>
    <tripinfo id="V77.0" depart="5.00" departLane="gneE65_0" departPos="5.10" departPosLat="0.00" departSpeed="0.00" departDelay="5.00" arrival="93.00" arrivalLane="gneE84_0" arrivalPos="15.83" arrivalPosLat="0.00" arrivalSpeed="7.63" duration="88.00" routeLength="1007.84" waitingTime="0.00" waitingCount="0" stopTime="0.00" timeLoss="13.08" rerouteNo="0" devices="tripinfo_V77.0 battery_V77.0" vType="DEFAULT_VEHTYPE" speedFactor="0.98" vaporized=""/>
    <tripinfo id="V85.0" depart="0.00" departLane="gneE83_0" departPos="5.10" departPosLat="0.00" departSpeed="0.00" departDelay="0.00" arrival="93.00" arrivalLane="gneE68_0" arrivalPos="235.60" arrivalPosLat="0.00" arrivalSpeed="15.36" duration="93.00" routeLength="730.97" waitingTime="19.00" waitingCount="1" stopTime="0.00" timeLoss="45.49" rerouteNo="0" devices="tripinfo_V85.0 battery_V85.0" vType="DEFAULT_VEHTYPE" speedFactor="1.15" vaporized=""/>
    <tripinfo id="V32.0" depart="3.00" departLane="-gneE51_0" departPos="5.10" departPosLat="0.00" departSpeed="0.00" departDelay="3.00" arrival="95.00" arrivalLane="-gneE70_0" arrivalPos="235.60" arrivalPosLat="0.00" arrivalSpeed="11.82" duration="92.00" routeLength="969.55" waitingTime="0.00" waitingCount="0" stopTime="0.00" timeLoss="13.11" rerouteNo="0" devices="tripinfo_V32.0 battery_V32.0" vType="DEFAULT_VEHTYPE" speedFactor="0.92" vaporized=""/>
    <tripinfo id="V55.0" depart="9.00" departLane="-gneE70_0" departPos="5.10" departPosLat="0.00" departSpeed="0.00" departDelay="9.00" arrival="95.00" arrivalLane="gneE57_0" arrivalPos="235.60" arrivalPosLat="0.00" arrivalSpeed="16.19" duration="86.00" routeLength="969.76" waitingTime="0.00" waitingCount="0" stopTime="0.00" timeLoss="24.27" rerouteNo="0" devices="tripinfo_V55.0 battery_V55.0" vType="DEFAULT_VEHTYPE" speedFactor="1.17" vaporized=""/>
    <tripinfo id="V63.0" depart="6.00" departLane="-gneE51_0" departPos="5.10" departPosLat="0.00" departSpeed="0.00" departDelay="6.00" arrival="95.00" arrivalLane="gneE59_0" arrivalPos="235.60" arrivalPosLat="0.00" arrivalSpeed="5.49" duration="89.00" routeLength="724.92" waitingTime="13.00" waitingCount="2" stopTime="0.00" timeLoss="39.00" rerouteNo="0" devices="tripinfo_V63.0 battery_V63.0" vType="DEFAULT_VEHTYPE" speedFactor="1.08" vaporized=""/>
    <tripinfo id="V10.0" depart="0.00" departLane="-gneE70_0" departPos="5.10" departPosLat="0.00" departSpeed="0.00" departDelay="0.00" arrival="96.00" arrivalLane="-gneE57_0" arrivalPos="235.60" arrivalPosLat="0.00" arrivalSpeed="13.37" duration="96.00" routeLength="724.92" waitingTime="23.00" waitingCount="2" stopTime="0.00" timeLoss="43.12" rerouteNo="0" devices="tripinfo_V10.0 battery_V10.0" vType="DEFAULT_VEHTYPE" speedFactor="1.01" vaporized=""/>
    <tripinfo id="V42.0" depart="0.00" departLane="-gneE65_0" departPos="5.10" departPosLat="0.00" departSpeed="0.00" departDelay="0.00" arrival="96.00" arrivalLane="-gneE71_0" arrivalPos="235.60" arrivalPosLat="0.00" arrivalSpeed="15.20" duration="96.00" routeLength="1231.63" waitingTime="2.00" waitingCount="1" stopTime="0.00" timeLoss="19.67" rerouteNo="0" devices="tripinfo_V42.0 battery_V42.0" vType="DEFAULT_VEHTYPE" speedFactor="1.18" vaporized=""/>
    <tripinfo id="V57.0" depart="6.00" departLane="-gneE57_0" departPos="5.10" departPosLat="0.00" departSpeed="0.00" departDelay="6.00" arrival="96.00" arrivalLane="-gneE51_0" arrivalPos="235.60" arrivalPosLat="0.00" arrivalSpeed="15.05" duration="90.00" routeLength="964.39" waitingTime="3.00" waitingCount="1" stopTime="0.00" timeLoss="25.09" rerouteNo="0" devices="tripinfo_V57.0 battery_V57.0" vType="DEFAULT_VEHTYPE" speedFactor="1.10" vaporized=""/>
    <tripinfo id="V76.0" depart="9.00" departLane="-gneE51_0" departPos="5.10" departPosLat="0.00" departSpeed="0.00" departDelay="9.00" arrival="97.00" arrivalLane="-gneE59_0" arrivalPos="235.60" arrivalPosLat="0.00" arrivalSpeed="12.93" duration="88.00" routeLength="969.76" waitingTime="0.00" waitingCount="0" stopTime="0.00" timeLoss="12.92" rerouteNo="0" devices="tripinfo_V76.0 battery_V76.0" vType="DEFAULT_VEHTYPE" speedFactor="0.96" vaporized=""/>
    <tripinfo id="V11.0" depart="0.00" departLane="gneE50_0" departPos="5.10" departPosLat="0.00" departSpeed="0.00" departDelay="0.00" arrival="99.00" arrivalLane="-gneE54_0" arrivalPos="235.60" arrivalPosLat="0.00" arrivalSpeed="14.49" duration="99.00" routeLength="724.92" waitingTime="35.00" waitingCount="1" stopTime="0.00" timeLoss="48.92" rerouteNo="0" devices="tripinfo_V11.0 battery_V11.0" vType="DEFAULT_VEHTYPE" speedFactor="1.08" vaporized=""/>
    <tripinfo id="V64.0" depart="12.00" departLane="-gneE70_0" departPos="5.10" departPosLat="0.00" departSpeed="0.00" departDelay="12.00" arrival="99.00" arrivalLane="gneE83_0" arrivalPos="7.95" arrivalPosLat="0.00" arrivalSpeed="8.32" duration="87.00" routeLength="989.40" waitingTime="0.00" waitingCount="0" stopTime="0.00" timeLoss="21.40" rerouteNo="0" devices="tripinfo_V64.0 battery_V64.0" vType="DEFAULT_VEHTYPE" speedFactor="1.12" vaporized=""/>
    <tripinfo id="V30.0" depart="3.00" departLane="-gneE64_0" departPos="5.10" departPosLat="0.00" departSpeed="0.00" departDelay="3.00" arrival="101.00" arrivalLane="-gneE49_0" arrivalPos="235.60" arrivalPosLat="0.00" arrivalSpeed="11.45" duration="98.00" routeLength="981.63" waitingTime="0.00" waitingCount="0" stopTime="0.00" timeLoss="9.97" rerouteNo="0" devices="tripinfo_V30.0 battery_V30.0" vType="DEFAULT_VEHTYPE" speedFactor="0.83" vaporized=""/>
    <tripinfo id="V61.0" depart="0.00" departLane="-gneE69_0" departPos="5.10" departPosLat="0.00" departSpeed="0.00" departDelay="0.00" arrival="102.00" arrivalLane="gneE51_0" arrivalPos="235.60" arrivalPosLat="0.00" arrivalSpeed="14.09" duration="102.00" routeLength="730.50" waitingTime="22.00" waitingCount="3" stopTime="0.00" timeLoss="49.88" rerouteNo="0" devices="tripinfo_V61.0 battery_V61.0" vType="DEFAULT_VEHTYPE" speedFactor="1.02" vaporized=""/>
    <tripinfo id="V21.0" depart="3.00" departLane="gneE60_0" departPos="5.10" departPosLat="0.00" departSpeed="0.00" departDelay="3.00" arrival="104.00" arrivalLane="gneE64_0" arrivalPos="239.60" arrivalPosLat="0.00" arrivalSpeed="13.03" duration="101.00" routeLength="1222.86" waitingTime="0.00" waitingCount="0" stopTime="0.00" timeLoss="11.77" rerouteNo="0" devices="tripinfo_V21.0 battery_V21.0" vType="DEFAULT_VEHTYPE" speedFactor="0.99" vaporized=""/>
    <tripinfo id="V65.0" depart="0.00" departLane="gneE64_0" departPos="5.10" departPosLat="0.00" departSpeed="0.00" departDelay="0.00" arrival="105.00" arrivalLane="gneE84_0" arrivalPos="15.83" arrivalPosLat="0.00" arrivalSpeed="8.77" duration="105.00" routeLength="1261.84" waitingTime="0.00" waitingCount="0" stopTime="0.00" timeLoss="13.62" rerouteNo="0" devices="tripinfo_V65.0 battery_V65.0" vType="DEFAULT_VEHTYPE" speedFactor="1.02" vaporized=""/>
    <tripinfo id="V94.0" depart="0.00" departLane="-gneE67_0" departPos="5.10" departPosLat="0.00" departSpeed="0.00" departDelay="0.00" arrival="107.00" arrivalLane="-gneE68_0" arrivalPos="235.60" arrivalPosLat="0.00" arrivalSpeed="7.98" duration="107.00" routeLength="731.63" waitingTime="38.00" waitingCount="2" stopTime="0.00" timeLoss="57.01" rerouteNo="0" devices="tripinfo_V94.0 battery_V94.0" vType="DEFAULT_VEHTYPE" speedFactor="1.09" vaporized=""/>
    <tripinfo id="V38.0" depart="3.00" departLane="-gneE60_0" departPos="5.10" departPosLat="0.00" departSpeed="0.00" departDelay="3.00" arrival="108.00" arrivalLane="gneE47_0" arrivalPos="232.55" arrivalPosLat="0.00" arrivalSpeed="13.79" duration="105.00" routeLength="1235.83" waitingTime="0.00" waitingCount="0" stopTime="0.00" timeLoss="15.10" rerouteNo="0" devices="tripinfo_V38.0 battery_V38.0" vType="DEFAULT_VEHTYPE" speedFactor="1.01" vaporized=""/>
    <tripinfo id="V71.0" depart="12.00" departLane="-gneE60_0" departPos="5.10" departPosLat="0.00" departSpeed="0.00" departDelay="12.00" arrival="108.00" arrivalLane="gneE84_0" arrivalPos="15.83" arrivalPosLat="0.00" arrivalSpeed="8.53" duration="96.00" routeLength="1028.36" waitingTime="3.00" waitingCount="1" stopTime="0.00" timeLoss="22.71" rerouteNo="0" devices="tripinfo_V71.0 battery_V71.0" vType="DEFAULT_VEHTYPE" speedFactor="1.02" vaporized=""/>
    <tripinfo id="V27.0" depart="0.00" departLane="gneE53_0" departPos="5.10" departPosLat="0.00" departSpeed="0.00" departDelay="0.00" arrival="109.00" arrivalLane="gneE68_0" arrivalPos="235.60" arrivalPosLat="0.00" arrivalSpeed="8.37" duration="109.00" routeLength="1226.25" waitingTime="0.00" waitingCount="0" stopTime="0.00" timeLoss="20.39" rerouteNo="0" devices="tripinfo_V27.0 battery_V27.0" vType="DEFAULT_VEHTYPE" speedFactor="1.02" vaporized=""/>
    <tripinfo id="V88.0" depart="9.00" departLane="gneE48_0" departPos="5.10" departPosLat="0.00" departSpeed="0.00" departDelay="9.00" arrival="109.00" arrivalLane="gneE64_0" arrivalPos="239.60" arrivalPosLat="0.00" arrivalSpeed="14.43" duration="100.00" routeLength="1221.31" waitingTime="0.00" waitingCount="0" stopTime="0.00" timeLoss="14.09" rerouteNo="0" devices="tripinfo_V88.0 battery_V88.0" vType="DEFAULT_VEHTYPE" speedFactor="1.04" vaporized=""/>
    <tripinfo id="V15.0" depart="0.00" departLane="-gneE51_0" departPos="5.10" departPosLat="0.00" departSpeed="0.00" departDelay="0.00" arrival="110.00" arrivalLane="-gneE78_0" arrivalPos="25.60" arrivalPosLat="0.00" arrivalSpeed="7.68" duration="110.00" routeLength="723.91" waitingTime="30.00" waitingCount="1" stopTime="0.00" timeLoss="49.72" rerouteNo="0" devices="tripinfo_V15.0 battery_V15.0" vType="DEFAULT_VEHTYPE" speedFactor="0.89" vaporized=""/>
    <tripinfo id="V53.0" depart="0.00" departLane="-gneE78_0" departPos="5.10" departPosLat="0.00" departSpeed="0.00" departDelay="0.00" arrival="110.00" arrivalLane="gneE69_0" arrivalPos="235.60" arrivalPosLat="0.00" arrivalSpeed="11.63" duration="110.00" routeLength="1015.13" waitingTime="1.00" waitingCount="1" stopTime="0.00" timeLoss="21.42" rerouteNo="0" devices="tripinfo_V53.0 battery_V53.0" vType="DEFAULT_VEHTYPE" speedFactor="0.85" vaporized=""/>
    <tripinfo id="V17.0" depart="3.00" departLane="gneE67_0" departPos="5.10" departPosLat="0.00" departSpeed="0.00" departDelay="3.00" arrival="111.00" arrivalLane="-gneE79_0" arrivalPos="200.78" arrivalPosLat="0.00" arrivalSpeed="6.71" duration="108.00" routeLength="943.89" waitingTime="5.00" waitingCount="2" stopTime="0.00" timeLoss="26.08" rerouteNo="0" devices="tripinfo_V17.0 battery_V17.0" vType="DEFAULT_VEHTYPE" speedFactor="0.86" vaporized=""/>
    <tripinfo id="V9.0" depart="0.00" departLane="gneE46_0" departPos="5.10" departPosLat="0.00" departSpeed="0.00" departDelay="0.00" arrival="111.00" arrivalLane="gneE52_0" arrivalPos="235.60" arrivalPosLat="0.00" arrivalSpeed="13.57" duration="111.00" routeLength="1233.64" waitingTime="4.00" waitingCount="1" stopTime="0.00" timeLoss="21.32" rerouteNo="0" devices="tripinfo_V9.0 battery_V9.0" vType="DEFAULT_VEHTYPE" speedFactor="1.02" vaporized=""/>
    <tripinfo id="V69.0" depart="0.00" departLane="gneE63_0" departPos="5.10" departPosLat="0.00" departSpeed="0.00" departDelay="0.00" arrival="114.00" arrivalLane="gneE51_0" arrivalPos="235.60" arrivalPosLat="0.00" arrivalSpeed="11.56" duration="114.00" routeLength="1221.31" waitingTime="0.00" waitingCount="0" stopTime="0.00" timeLoss="14.97" rerouteNo="0" devices="tripinfo_V69.0 battery_V69.0" vType="DEFAULT_VEHTYPE" speedFactor="0.91" vaporized=""/>
    <tripinfo id="V78.0" depart="0.00" departLane="gneE79_0" departPos="5.10" departPosLat="0.00" departSpeed="0.00" departDelay="0.00" arrival="114.00" arrivalLane="-gneE66_0" arrivalPos="239.60" arrivalPosLat="0.00" arrivalSpeed="14.26" duration="114.00" routeLength="1186.07" waitingTime="7.00" waitingCount="2" stopTime="0.00" timeLoss="28.72" rerouteNo="0" devices="tripinfo_V78.0 battery_V78.0" vType="DEFAULT_VEHTYPE" speedFactor="1.03" vaporized=""/>
    <tripinfo id="V80.0" depart="0.00" departLane="-gneE52_0" departPos="5.10" departPosLat="0.00" departSpeed="0.00" departDelay="0.00" arrival="115.00" arrivalLane="-gneE47_0" arrivalPos="232.55" arrivalPosLat="0.00" arrivalSpeed="14.99" duration="115.00" routeLength="1461.34" waitingTime="0.00" waitingCount="0" stopTime="0.00" timeLoss="16.71" rerouteNo="0" devices="tripinfo_V80.0 battery_V80.0" vType="DEFAULT_VEHTYPE" speedFactor="1.09" vaporized=""/>
    <tripinfo id="V81.0" depart="0.00" departLane="gneE59_0" departPos="5.10" departPosLat="0.00" departSpeed="0.00" departDelay="0.00" arrival="115.00" arrivalLane="-gneE68_0" arrivalPos="235.60" arrivalPosLat="0.00" arrivalSpeed="14.32" duration="115.00" routeLength="1214.18" waitingTime="8.00" waitingCount="1" stopTime="0.00" timeLoss="27.59" rerouteNo="0" devices="tripinfo_V81.0 battery_V81.0" vType="DEFAULT_VEHTYPE" speedFactor="1.03" vaporized=""/>
    <tripinfo id="V14.0" depart="0.00" departLane="gneE67_0" departPos="5.10" departPosLat="0.00" departSpeed="0.00" departDelay="0.00" arrival="117.00" arrivalLane="-gneE51_0" arrivalPos="235.60" arrivalPosLat="0.00" arrivalSpeed="14.52" duration="117.00" routeLength="1475.30" waitingTime="0.00" waitingCount="0" stopTime="0.00" timeLoss="13.77" rerouteNo="0" devices="tripinfo_V14.0 battery_V14.0" vType="DEFAULT_VEHTYPE" speedFactor="1.05" vaporized=""/>
    <tripinfo id="V47.0" depart="3.00" departLane="gneE48_0" departPos="5.10" departPosLat="0.00" departSpeed="0.00" departDelay="3.00" arrival="117.00" arrivalLane="gneE85_0" arrivalPos="6.93" arrivalPosLat="0.00" arrivalSpeed="9.14" duration="114.00" routeLength="778.74" waitingTime="33.00" waitingCount="1" stopTime="0.00" timeLoss="59.65" rerouteNo="0" devices="tripinfo_V47.0 battery_V47.0" vType="DEFAULT_VEHTYPE" speedFactor="1.09" vaporized=""/>
    <tripinfo id="V16.0" depart="0.00" departLane="-gneE60_0" departPos="5.10" departPosLat="0.00" departSpeed="0.00" departDelay="0.00" arrival="122.00" arrivalLane="gneE68_0" arrivalPos="235.60" arrivalPosLat="0.00" arrivalSpeed="11.76" duration="122.00" routeLength="1234.29" waitingTime="7.00" waitingCount="2" stopTime="0.00" timeLoss="25.95" rerouteNo="0" devices="tripinfo_V16.0 battery_V16.0" vType="DEFAULT_VEHTYPE" speedFactor="0.94" vaporized=""/>
    <tripinfo id="V40.0" depart="0.00" departLane="-gneE46_0" departPos="5.10" departPosLat="0.00" departSpeed="0.00" departDelay="0.00" arrival="122.00" arrivalLane="gneE85_0" arrivalPos="6.93" arrivalPosLat="0.00" arrivalSpeed="7.44" duration="122.00" routeLength="1014.59" waitingTime="22.00" waitingCount="1" stopTime="0.00" timeLoss="46.93" rerouteNo="0" devices="tripinfo_V40.0 battery_V40.0" vType="DEFAULT_VEHTYPE" speedFactor="1.02" vaporized=""/>