<?xml version="1.0" encoding="UTF-8"?>

<!-- generated on 04/01/21 14:10:42 by Eclipse SUMO sumo Version v1_8_0+1742-ceeb7fe3f3
<configuration xmlns:xsi="http://www.w3.org/2001/XMLSchema-instance" xsi:noNamespaceSchemaLocation="http://sumo.dlr.de/xsd/sumoConfiguration.xsd">

    <input>
        <net-file value="data/EVGrid.net.xml"/>
        <route-files value="data/electricvehicles.rou.xml,data/randroutes.rou.xml"/>
        <additional-files value="data/EVGrid_additionals.add.xml"/>
    </input>

    <output>
        <battery-output value="data/battery.out.xml"/>
        <battery-output.precision value="4"/>
        <chargingstations-output value="data/EVGrid_chargingstations.xml"/>
        <summary-output value="data/summary-overview.xml"/>
        <tripinfo-output value="tripinfo.xml"/>
    </output>

    <processing>
        <lateral-resolution value="1"/>
    </processing>

    <battery>
        <device.battery.probability value="1"/>
    </battery>

    <traci_server>
        <remote-port value="55606"/>
    </traci_server>

    <gui_only>
        <gui-settings-file value="data/gui-settings.cfg"/>
    </gui_only>

</configuration>
-->

<tripinfos xmlns:xsi="http://www.w3.org/2001/XMLSchema-instance" xsi:noNamespaceSchemaLocation="http://sumo.dlr.de/xsd/tripinfo_file.xsd">
    <tripinfo id="V42.0" depart="0.00" departLane="-gneE117_0" departPos="5.10" departPosLat="0.00" departSpeed="0.00" departDelay="0.00" arrival="4.00" arrivalLane="-gneE117_0" arrivalPos="25.10" arrivalPosLat="0.00" arrivalSpeed="8.65" duration="4.00" routeLength="20.00" waitingTime="0.00" waitingCount="0" stopTime="0.00" timeLoss="2.71" rerouteNo="0" devices="tripinfo_V42.0 battery_V42.0" vType="DEFAULT_VEHTYPE" speedFactor="1.18" vaporized=""/>
    <tripinfo id="V44.0" depart="0.00" departLane="gneE79_0" departPos="5.10" departPosLat="0.00" departSpeed="0.00" departDelay="0.00" arrival="19.00" arrivalLane="gneE79_0" arrivalPos="200.80" arrivalPosLat="0.00" arrivalSpeed="11.92" duration="19.00" routeLength="195.70" waitingTime="0.00" waitingCount="0" stopTime="0.00" timeLoss="3.15" rerouteNo="0" devices="tripinfo_V44.0 battery_V44.0" vType="DEFAULT_VEHTYPE" speedFactor="0.90" vaporized=""/>
    <tripinfo id="V50.0" depart="0.00" departLane="-gneE50_0" departPos="5.10" departPosLat="0.00" departSpeed="0.00" departDelay="0.00" arrival="20.00" arrivalLane="-gneE50_0" arrivalPos="235.60" arrivalPosLat="0.00" arrivalSpeed="13.30" duration="20.00" routeLength="230.50" waitingTime="0.00" waitingCount="0" stopTime="0.00" timeLoss="3.08" rerouteNo="0" devices="tripinfo_V50.0 battery_V50.0" vType="DEFAULT_VEHTYPE" speedFactor="1.00" vaporized=""/>
    <tripinfo id="V31.0" depart="0.00" departLane="-gneE71_0" departPos="5.10" departPosLat="0.00" departSpeed="0.00" departDelay="0.00" arrival="23.00" arrivalLane="-gneE71_0" arrivalPos="235.60" arrivalPosLat="0.00" arrivalSpeed="10.87" duration="23.00" routeLength="230.50" waitingTime="0.00" waitingCount="0" stopTime="0.00" timeLoss="3.40" rerouteNo="0" devices="tripinfo_V31.0 battery_V31.0" vType="DEFAULT_VEHTYPE" speedFactor="0.87" vaporized=""/>
    <tripinfo id="V37.0" depart="3.00" departLane="gneE63_0" departPos="5.10" departPosLat="0.00" departSpeed="0.00" departDelay="3.00" arrival="23.00" arrivalLane="gneE63_0" arrivalPos="239.60" arrivalPosLat="0.00" arrivalSpeed="10.68" duration="20.00" routeLength="234.50" waitingTime="0.00" waitingCount="0" stopTime="0.00" timeLoss="5.30" rerouteNo="0" devices="tripinfo_V37.0 battery_V37.0" vType="DEFAULT_VEHTYPE" speedFactor="1.15" vaporized=""/>
    <tripinfo id="V56.0" depart="3.00" departLane="-gneE70_0" departPos="5.10" departPosLat="0.00" departSpeed="0.00" departDelay="3.00" arrival="44.00" arrivalLane="-gneE49_0" arrivalPos="235.60" arrivalPosLat="0.00" arrivalSpeed="6.85" duration="41.00" routeLength="474.66" waitingTime="0.00" waitingCount="0" stopTime="0.00" timeLoss="7.27" rerouteNo="0" devices="tripinfo_V56.0 battery_V56.0" vType="DEFAULT_VEHTYPE" speedFactor="1.02" vaporized=""/>
    <tripinfo id="V98.0" depart="6.00" departLane="-gneE63_0" departPos="5.10" departPosLat="0.00" departSpeed="0.00" departDelay="6.00" arrival="48.00" arrivalLane="gneE119_0" arrivalPos="202.94" arrivalPosLat="0.00" arrivalSpeed="15.18" duration="42.00" routeLength="484.49" waitingTime="0.00" waitingCount="0" stopTime="0.00" timeLoss="10.41" rerouteNo="0" devices="tripinfo_V98.0 battery_V98.0" vType="DEFAULT_VEHTYPE" speedFactor="1.12" vaporized=""/>
    <tripinfo id="V49.0" depart="3.00" departLane="-gneE117_0" departPos="5.10" departPosLat="0.00" departSpeed="0.00" departDelay="3.00" arrival="49.00" arrivalLane="-gneE49_0" arrivalPos="235.60" arrivalPosLat="0.00" arrivalSpeed="13.31" duration="46.00" routeLength="513.41" waitingTime="0.00" waitingCount="0" stopTime="0.00" timeLoss="9.82" rerouteNo="0" devices="tripinfo_V49.0 battery_V49.0" vType="DEFAULT_VEHTYPE" speedFactor="1.04" vaporized=""/>
    <tripinfo id="V68.0" depart="3.00" departLane="-gneE125_0" departPos="5.10" departPosLat="0.00" departSpeed="0.00" departDelay="3.00" arrival="54.00" arrivalLane="-gneE69_0" arrivalPos="235.60" arrivalPosLat="0.00" arrivalSpeed="11.18" duration="51.00" routeLength="518.10" waitingTime="0.00" waitingCount="0" stopTime="0.00" timeLoss="7.17" rerouteNo="0" devices="tripinfo_V68.0 battery_V68.0" vType="DEFAULT_VEHTYPE" speedFactor="0.88" vaporized=""/>
    <tripinfo id="V95.0" depart="15.00" departLane="gneE71_0" departPos="5.10" departPosLat="0.00" departSpeed="0.00" departDelay="15.00" arrival="60.00" arrivalLane="-gneE119_0" arrivalPos="202.94" arrivalPosLat="0.00" arrivalSpeed="14.18" duration="45.00" routeLength="442.47" waitingTime="0.00" waitingCount="0" stopTime="0.00" timeLoss="13.54" rerouteNo="0" devices="tripinfo_V95.0 battery_V95.0" vType="DEFAULT_VEHTYPE" speedFactor="1.06" vaporized=""/>
    <tripinfo id="V55.0" depart="3.00" departLane="gneE79_0" departPos="5.10" departPosLat="0.00" departSpeed="0.00" departDelay="3.00" arrival="64.00" arrivalLane="gneE68_0" arrivalPos="235.60" arrivalPosLat="0.00" arrivalSpeed="15.09" duration="61.00" routeLength="690.33" waitingTime="2.00" waitingCount="1" stopTime="0.00" timeLoss="17.93" rerouteNo="0" devices="tripinfo_V55.0 battery_V55.0" vType="DEFAULT_VEHTYPE" speedFactor="1.17" vaporized=""/>
    <tripinfo id="V72.0" depart="3.00" departLane="-gneE107_0" departPos="5.10" departPosLat="0.00" departSpeed="0.00" departDelay="3.00" arrival="67.00" arrivalLane="gneE46_0" arrivalPos="239.59" arrivalPosLat="0.00" arrivalSpeed="14.05" duration="64.00" routeLength="728.03" waitingTime="0.00" waitingCount="0" stopTime="0.00" timeLoss="11.14" rerouteNo="0" devices="tripinfo_V72.0 battery_V72.0" vType="DEFAULT_VEHTYPE" speedFactor="1.02" vaporized=""/>
    <tripinfo id="V59.0" depart="0.00" departLane="-gneE59_0" departPos="5.10" departPosLat="0.00" departSpeed="0.00" departDelay="0.00" arrival="68.00" arrivalLane="gneE53_0" arrivalPos="239.61" arrivalPosLat="0.00" arrivalSpeed="13.61" duration="68.00" routeLength="734.30" waitingTime="1.00" waitingCount="1" stopTime="0.00" timeLoss="14.09" rerouteNo="0" devices="tripinfo_V59.0 battery_V59.0" vType="DEFAULT_VEHTYPE" speedFactor="1.00" vaporized=""/>
    <tripinfo id="V43.0" depart="3.00" departLane="-gneE61_0" departPos="5.10" departPosLat="0.00" departSpeed="0.00" departDelay="3.00" arrival="71.00" arrivalLane="gneE52_0" arrivalPos="235.59" arrivalPosLat="0.00" arrivalSpeed="15.05" duration="68.00" routeLength="731.83" waitingTime="1.00" waitingCount="1" stopTime="0.00" timeLoss="18.51" rerouteNo="0" devices="tripinfo_V43.0 battery_V43.0" vType="DEFAULT_VEHTYPE" speedFactor="1.10" vaporized=""/>
    <tripinfo id="V73.0" depart="3.00" departLane="-gneE59_0" departPos="5.10" departPosLat="0.00" departSpeed="0.00" departDelay="3.00" arrival="72.00" arrivalLane="-gneE46_0" arrivalPos="239.59" arrivalPosLat="0.00" arrivalSpeed="12.84" duration="69.00" routeLength="728.91" waitingTime="0.00" waitingCount="0" stopTime="0.00" timeLoss="13.28" rerouteNo="0" devices="tripinfo_V73.0 battery_V73.0" vType="DEFAULT_VEHTYPE" speedFactor="0.97" vaporized=""/>
    <tripinfo id="V78.0" depart="0.00" departLane="gneE106_0" departPos="5.10" departPosLat="0.00" departSpeed="0.00" departDelay="0.00" arrival="74.00" arrivalLane="gneE71_0" arrivalPos="235.60" arrivalPosLat="0.00" arrivalSpeed="14.15" duration="74.00" routeLength="729.42" waitingTime="12.00" waitingCount="1" stopTime="0.00" timeLoss="21.85" rerouteNo="0" devices="tripinfo_V78.0 battery_V78.0" vType="DEFAULT_VEHTYPE" speedFactor="1.03" vaporized=""/>
    <tripinfo id="V16.0" depart="0.00" departLane="-gneE51_0" departPos="5.10" departPosLat="0.00" departSpeed="0.00" departDelay="0.00" arrival="76.00" arrivalLane="gneE59_0" arrivalPos="235.60" arrivalPosLat="0.00" arrivalSpeed="12.26" duration="76.00" routeLength="724.77" waitingTime="3.00" waitingCount="2" stopTime="0.00" timeLoss="19.21" rerouteNo="0" devices="tripinfo_V16.0 battery_V16.0" vType="DEFAULT_VEHTYPE" speedFactor="0.94" vaporized=""/>
    <tripinfo id="V27.0" depart="0.00" departLane="-gneE49_0" departPos="5.10" departPosLat="0.00" departSpeed="0.00" departDelay="0.00" arrival="76.00" arrivalLane="-gneE65_0" arrivalPos="235.60" arrivalPosLat="0.00" arrivalSpeed="5.45" duration="76.00" routeLength="730.08" waitingTime="0.00" waitingCount="0" stopTime="0.00" timeLoss="22.99" rerouteNo="0" devices="tripinfo_V27.0 battery_V27.0" vType="DEFAULT_VEHTYPE" speedFactor="1.02" vaporized=""/>
    <tripinfo id="V52.0" depart="3.00" departLane="-gneE49_0" departPos="5.10" departPosLat="0.00" departSpeed="0.00" departDelay="3.00" arrival="76.00" arrivalLane="-gneE127_0" arrivalPos="204.53" arrivalPosLat="0.00" arrivalSpeed="11.15" duration="73.00" routeLength="728.24" waitingTime="0.00" waitingCount="0" stopTime="0.00" timeLoss="11.24" rerouteNo="0" devices="tripinfo_V52.0 battery_V52.0" vType="DEFAULT_VEHTYPE" speedFactor="0.88" vaporized=""/>
    <tripinfo id="V58.0" depart="6.00" departLane="-gneE117_0" departPos="5.10" departPosLat="0.00" departSpeed="0.00" departDelay="6.00" arrival="76.00" arrivalLane="gneE125_0" arrivalPos="18.68" arrivalPosLat="0.00" arrivalSpeed="13.15" duration="70.00" routeLength="803.41" waitingTime="0.00" waitingCount="0" stopTime="0.00" timeLoss="12.33" rerouteNo="0" devices="tripinfo_V58.0 battery_V58.0" vType="DEFAULT_VEHTYPE" speedFactor="1.00" vaporized=""/>
    <tripinfo id="V45.0" depart="6.00" departLane="gneE71_0" departPos="5.10" departPosLat="0.00" departSpeed="0.00" departDelay="6.00" arrival="78.00" arrivalLane="-gneE70_0" arrivalPos="229.76" arrivalPosLat="0.00" arrivalSpeed="12.72" duration="72.00" routeLength="719.12" waitingTime="2.00" waitingCount="1" stopTime="0.00" timeLoss="19.36" rerouteNo="0" devices="tripinfo_V45.0 battery_V45.0" vType="DEFAULT_VEHTYPE" speedFactor="1.03" vaporized=""/>
    <tripinfo id="V12.0" depart="0.00" departLane="gneE47_0" departPos="5.10" departPosLat="0.00" departSpeed="0.00" departDelay="0.00" arrival="79.00" arrivalLane="gneE70_0" arrivalPos="229.76" arrivalPosLat="0.00" arrivalSpeed="14.16" duration="79.00" routeLength="969.45" waitingTime="0.00" waitingCount="0" stopTime="0.00" timeLoss="10.28" rerouteNo="0" devices="tripinfo_V12.0 battery_V12.0" vType="DEFAULT_VEHTYPE" speedFactor="1.03" vaporized=""/>
    <tripinfo id="V7.0" depart="0.00" departLane="gneE59_0" departPos="5.10" departPosLat="0.00" departSpeed="0.00" departDelay="0.00" arrival="79.00" arrivalLane="-gneE65_0" arrivalPos="235.60" arrivalPosLat="0.00" arrivalSpeed="11.63" duration="79.00" routeLength="730.29" waitingTime="8.00" waitingCount="1" stopTime="0.00" timeLoss="20.32" rerouteNo="0" devices="tripinfo_V7.0 battery_V7.0" vType="DEFAULT_VEHTYPE" speedFactor="0.91" vaporized=""/>
    <tripinfo id="V81.0" depart="6.00" departLane="gneE61_0" departPos="5.10" departPosLat="0.00" departSpeed="0.00" departDelay="6.00" arrival="83.00" arrivalLane="-gneE49_0" arrivalPos="235.60" arrivalPosLat="0.00" arrivalSpeed="13.87" duration="77.00" routeLength="978.49" waitingTime="0.00" waitingCount="0" stopTime="0.00" timeLoss="7.96" rerouteNo="0" devices="tripinfo_V81.0 battery_V81.0" vType="DEFAULT_VEHTYPE" speedFactor="1.03" vaporized=""/>
    <tripinfo id="V84.0" depart="0.00" departLane="-gneE47_0" departPos="5.10" departPosLat="0.00" departSpeed="0.00" departDelay="0.00" arrival="84.00" arrivalLane="gneE51_0" arrivalPos="235.60" arrivalPosLat="0.00" arrivalSpeed="13.03" duration="84.00" routeLength="974.21" waitingTime="0.00" waitingCount="0" stopTime="0.00" timeLoss="9.91" rerouteNo="0" devices="tripinfo_V84.0 battery_V84.0" vType="DEFAULT_VEHTYPE" speedFactor="0.97" vaporized=""/>
    <tripinfo id="V66.0" depart="3.00" departLane="-gneE71_0" departPos="5.10" departPosLat="0.00" departSpeed="0.00" departDelay="3.00" arrival="85.00" arrivalLane="-gneE46_0" arrivalPos="239.59" arrivalPosLat="0.00" arrivalSpeed="12.66" duration="82.00" routeLength="979.12" waitingTime="0.00" waitingCount="0" stopTime="0.00" timeLoss="9.37" rerouteNo="0" devices="tripinfo_V66.0 battery_V66.0" vType="DEFAULT_VEHTYPE" speedFactor="0.99" vaporized=""/>
    <tripinfo id="V79.0" depart="0.00" departLane="-gneE65_0" departPos="5.10" departPosLat="0.00" departSpeed="0.00" departDelay="0.00" arrival="89.00" arrivalLane="gneE63_0" arrivalPos="239.60" arrivalPosLat="0.00" arrivalSpeed="8.49" duration="89.00" routeLength="972.74" waitingTime="0.00" waitingCount="0" stopTime="0.00" timeLoss="15.20" rerouteNo="0" devices="tripinfo_V79.0 battery_V79.0" vType="DEFAULT_VEHTYPE" speedFactor="0.98" vaporized=""/>
    <tripinfo id="V9.0" depart="9.00" departLane="gneE63_0" departPos="5.10" departPosLat="0.00" departSpeed="0.00" departDelay="9.00" arrival="89.00" arrivalLane="-gneE127_0" arrivalPos="204.53" arrivalPosLat="0.00" arrivalSpeed="13.59" duration="80.00" routeLength="980.68" waitingTime="0.00" waitingCount="0" stopTime="0.00" timeLoss="9.99" rerouteNo="0" devices="tripinfo_V9.0 battery_V9.0" vType="DEFAULT_VEHTYPE" speedFactor="1.02" vaporized=""/>
    <tripinfo id="V10.0" depart="0.00" departLane="gneE127_0" departPos="5.10" departPosLat="0.00" departSpeed="0.00" departDelay="0.00" arrival="90.00" arrivalLane="-gneE69_0" arrivalPos="235.60" arrivalPosLat="0.00" arrivalSpeed="5.37" duration="90.00" routeLength="734.30" waitingTime="18.00" waitingCount="3" stopTime="0.00" timeLoss="36.88" rerouteNo="0" devices="tripinfo_V10.0 battery_V10.0" vType="DEFAULT_VEHTYPE" speedFactor="1.01" vaporized=""/>
    <tripinfo id="V88.0" depart="9.00" departLane="gneE61_0" departPos="5.10" departPosLat="0.00" departSpeed="0.00" departDelay="9.00" arrival="91.00" arrivalLane="gneE69_0" arrivalPos="235.60" arrivalPosLat="0.00" arrivalSpeed="8.64" duration="82.00" routeLength="978.28" waitingTime="0.00" waitingCount="0" stopTime="0.00" timeLoss="13.05" rerouteNo="0" devices="tripinfo_V88.0 battery_V88.0" vType="DEFAULT_VEHTYPE" speedFactor="1.04" vaporized=""/>
    <tripinfo id="V47.0" depart="0.00" departLane="-gneE53_0" departPos="5.10" departPosLat="0.00" departSpeed="0.00" departDelay="0.00" arrival="92.00" arrivalLane="-gneE57_0" arrivalPos="234.83" arrivalPosLat="0.00" arrivalSpeed="13.82" duration="92.00" routeLength="972.99" waitingTime="5.00" waitingCount="1" stopTime="0.00" timeLoss="26.09" rerouteNo="0" devices="tripinfo_V47.0 battery_V47.0" vType="DEFAULT_VEHTYPE" speedFactor="1.09" vaporized=""/>
    <tripinfo id="V51.0" depart="6.00" departLane="gneE127_0" departPos="5.10" departPosLat="0.00" departSpeed="0.00" departDelay="6.00" arrival="92.00" arrivalLane="gneE49_0" arrivalPos="235.60" arrivalPosLat="0.00" arrivalSpeed="11.75" duration="86.00" routeLength="728.19" waitingTime="4.00" waitingCount="2" stopTime="0.00" timeLoss="25.90" rerouteNo="0" devices="tripinfo_V51.0 battery_V51.0" vType="DEFAULT_VEHTYPE" speedFactor="0.90" vaporized=""/>
    <tripinfo id="V39.0" depart="6.00" departLane="gneE68_0" departPos="5.10" departPosLat="0.00" departSpeed="0.00" departDelay="6.00" arrival="95.00" arrivalLane="-gneE63_0" arrivalPos="239.60" arrivalPosLat="0.00" arrivalSpeed="15.84" duration="89.00" routeLength="981.63" waitingTime="8.00" waitingCount="1" stopTime="0.00" timeLoss="27.51" rerouteNo="0" devices="tripinfo_V39.0 battery_V39.0" vType="DEFAULT_VEHTYPE" speedFactor="1.17" vaporized=""/>
    <tripinfo id="V93.0" depart="6.00" departLane="-gneE70_0" departPos="5.10" departPosLat="0.00" departSpeed="0.00" departDelay="6.00" arrival="96.00" arrivalLane="gneE51_0" arrivalPos="235.60" arrivalPosLat="0.00" arrivalSpeed="11.79" duration="90.00" routeLength="719.29" waitingTime="22.00" waitingCount="1" stopTime="0.00" timeLoss="32.82" rerouteNo="0" devices="tripinfo_V93.0 battery_V93.0" vType="DEFAULT_VEHTYPE" speedFactor="0.92" vaporized=""/>
    <tripinfo id="V1.0" depart="0.00" departLane="-gneE125_0" departPos="5.10" departPosLat="0.00" departSpeed="0.00" departDelay="0.00" arrival="98.00" arrivalLane="-gneE78_0" arrivalPos="26.81" arrivalPosLat="0.00" arrivalSpeed="12.39" duration="98.00" routeLength="767.15" waitingTime="16.00" waitingCount="2" stopTime="0.00" timeLoss="37.89" rerouteNo="0" devices="tripinfo_V1.0 battery_V1.0" vType="DEFAULT_VEHTYPE" speedFactor="0.94" vaporized=""/>
    <tripinfo id="V94.0" depart="7.00" departLane="-gneE49_0" departPos="5.10" departPosLat="0.00" departSpeed="0.00" departDelay="7.00" arrival="100.00" arrivalLane="gneE79_0" arrivalPos="200.80" arrivalPosLat="0.00" arrivalSpeed="8.47" duration="93.00" routeLength="969.05" waitingTime="5.00" waitingCount="1" stopTime="0.00" timeLoss="27.18" rerouteNo="0" devices="tripinfo_V94.0 battery_V94.0" vType="DEFAULT_VEHTYPE" speedFactor="1.09" vaporized=""/>
    <tripinfo id="V54.0" depart="3.00" departLane="gneE125_0" departPos="5.10" departPosLat="0.00" departSpeed="0.00" departDelay="3.00" arrival="101.00" arrivalLane="-gneE107_0" arrivalPos="20.15" arrivalPosLat="0.00" arrivalSpeed="11.60" duration="98.00" routeLength="1002.35" waitingTime="0.00" waitingCount="0" stopTime="0.00" timeLoss="11.45" rerouteNo="0" devices="tripinfo_V54.0 battery_V54.0" vType="DEFAULT_VEHTYPE" speedFactor="0.85" vaporized=""/>
    <tripinfo id="V19.0" depart="0.00" departLane="gneE61_0" departPos="5.10" departPosLat="0.00" departSpeed="0.00" departDelay="0.00" arrival="102.00" arrivalLane="gneE68_0" arrivalPos="235.60" arrivalPosLat="0.00" arrivalSpeed="14.08" duration="102.00" routeLength="1228.28" waitingTime="1.00" waitingCount="1" stopTime="0.00" timeLoss="14.37" rerouteNo="0" devices="tripinfo_V19.0 battery_V19.0" vType="DEFAULT_VEHTYPE" speedFactor="1.03" vaporized=""/>
    <tripinfo id="V0.0" depart="0.00" departLane="-gneE79_0" departPos="5.10" departPosLat="0.00" departSpeed="0.00" departDelay="0.00" arrival="104.00" arrivalLane="gneE50_0" arrivalPos="235.60" arrivalPosLat="0.00" arrivalSpeed="13.44" duration="104.00" routeLength="1229.10" waitingTime="1.00" waitingCount="1" stopTime="0.00" timeLoss="17.21" rerouteNo="0" devices="tripinfo_V0.0 battery_V0.0" vType="DEFAULT_VEHTYPE" speedFactor="1.06" vaporized=""/>
    <tripinfo id="V74.0" depart="0.00" departLane="-gneE63_0" departPos="5.10" departPosLat="0.00" departSpeed="0.00" departDelay="0.00" arrival="107.00" arrivalLane="-gneE51_0" arrivalPos="235.60" arrivalPosLat="0.00" arrivalSpeed="12.83" duration="107.00" routeLength="1235.62" waitingTime="0.00" waitingCount="0" stopTime="0.00" timeLoss="10.24" rerouteNo="0" devices="tripinfo_V74.0 battery_V74.0" vType="DEFAULT_VEHTYPE" speedFactor="0.94" vaporized=""/>
    <tripinfo id="V83.0" depart="6.00" departLane="-gneE125_0" departPos="5.10" departPosLat="0.00" departSpeed="0.00" departDelay="6.00" arrival="109.00" arrivalLane="gneE65_0" arrivalPos="235.60" arrivalPosLat="0.00" arrivalSpeed="13.81" duration="103.00" routeLength="1001.25" waitingTime="5.00" waitingCount="2" stopTime="0.00" timeLoss="28.73" rerouteNo="0" devices="tripinfo_V83.0 battery_V83.0" vType="DEFAULT_VEHTYPE" speedFactor="1.02" vaporized=""/>
    <tripinfo id="V89.0" depart="3.00" departLane="-gneE65_0" departPos="5.10" departPosLat="0.00" departSpeed="0.00" departDelay="3.00" arrival="109.00" arrivalLane="gneE71_0" arrivalPos="235.60" arrivalPosLat="0.00" arrivalSpeed="11.68" duration="106.00" routeLength="974.92" waitingTime="8.00" waitingCount="2" stopTime="0.00" timeLoss="34.96" rerouteNo="0" devices="tripinfo_V89.0 battery_V89.0" vType="DEFAULT_VEHTYPE" speedFactor="1.01" vaporized=""/>
    <tripinfo id="V71.0" depart="9.00" departLane="-gneE52_0" departPos="5.10" departPosLat="0.00" departSpeed="0.00" departDelay="9.00" arrival="110.00" arrivalLane="-gneE79_0" arrivalPos="200.80" arrivalPosLat="0.00" arrivalSpeed="12.67" duration="101.00" routeLength="934.95" waitingTime="5.00" waitingCount="1" stopTime="0.00" timeLoss="33.59" rerouteNo="0" devices="tripinfo_V71.0 battery_V71.0" vType="DEFAULT_VEHTYPE" speedFactor="1.02" vaporized=""/>
    <tripinfo id="V22.0" depart="0.00" departLane="-gneE52_0" departPos="5.10" departPosLat="0.00" departSpeed="0.00" departDelay="0.00" arrival="111.00" arrivalLane="-gneE46_0" arrivalPos="239.59" arrivalPosLat="0.00" arrivalSpeed="11.61" duration="111.00" routeLength="1218.37" waitingTime="0.00" waitingCount="0" stopTime="0.00" timeLoss="13.74" rerouteNo="0" devices="tripinfo_V22.0 battery_V22.0" vType="DEFAULT_VEHTYPE" speedFactor="0.93" vaporized=""/>
    <tripinfo id="V26.0" depart="0.00" departLane="gneE67_0" departPos="5.10" departPosLat="0.00" departSpeed="0.00" departDelay="0.00" arrival="111.00" arrivalLane="-gneE50_0" arrivalPos="235.60" arrivalPosLat="0.00" arrivalSpeed="8.12" duration="111.00" routeLength="1223.05" waitingTime="8.00" waitingCount="1" stopTime="0.00" timeLoss="33.34" rerouteNo="0" devices="tripinfo_V26.0 battery_V26.0" vType="DEFAULT_VEHTYPE" speedFactor="1.16" vaporized=""/>
    <tripinfo id="V97.0" depart="0.00" departLane="gneE60_0" departPos="5.10" departPosLat="0.00" departSpeed="0.00" departDelay="0.00" arrival="113.00" arrivalLane="-gneE50_0" arrivalPos="235.60" arrivalPosLat="0.00" arrivalSpeed="9.55" duration="113.00" routeLength="971.10" waitingTime="6.00" waitingCount="1" stopTime="0.00" timeLoss="33.91" rerouteNo="0" devices="tripinfo_V97.0 battery_V97.0" vType="DEFAULT_VEHTYPE" speedFactor="0.91" vaporized=""/>
    <tripinfo id="V13.0" depart="3.00" departLane="gneE127_0" departPos="5.10" departPosLat="0.00" departSpeed="0.00" departDelay="3.00" arrival="116.00" arrivalLane="-gneE47_0" arrivalPos="230.60" arrivalPosLat="0.00" arrivalSpeed="10.81" duration="113.00" routeLength="972.98" waitingTime="6.00" waitingCount="2" stopTime="0.00" timeLoss="25.89" rerouteNo="0" devices="tripinfo_V13.0 battery_V13.0" vType="DEFAULT_VEHTYPE" speedFactor="0.83" vaporized=""/>
    <tripinfo id="V17.0" depart="0.00" departLane="-gneE119_0" departPos="5.10" departPosLat="0.00" departSpeed="0.00" departDelay="0.00" arrival="116.00" arrivalLane="-gneE68_0" arrivalPos="235.60" arrivalPosLat="0.00" arrivalSpeed="10.99" duration="116.00" routeLength="1221.30" waitingTime="0.00" waitingCount="0" stopTime="0.00" timeLoss="12.31" rerouteNo="0" devices="tripinfo_V17.0 battery_V17.0" vType="DEFAULT_VEHTYPE" speedFactor="0.86" vaporized=""/>
    <tripinfo id="V57.0" depart="3.00" departLane="gneE61_0" departPos="5.10" departPosLat="0.00" departSpeed="0.00" departDelay="3.00" arrival="116.00" arrivalLane="gneE48_0" arrivalPos="235.60" arrivalPosLat="0.00" arrivalSpeed="15.01" duration="113.00" routeLength="1477.94" waitingTime="0.00" waitingCount="0" stopTime="0.00" timeLoss="13.86" rerouteNo="0" devices="tripinfo_V57.0 battery_V57.0" vType="DEFAULT_VEHTYPE" speedFactor="1.10" vaporized=""/>
    <tripinfo id="V77.0" depart="9.00" departLane="-gneE127_0" departPos="5.10" departPosLat="0.00" departSpeed="0.00" departDelay="9.00" arrival="117.00" arrivalLane="-gneE65_0" arrivalPos="235.60" arrivalPosLat="0.00" arrivalSpeed="13.65" duration="108.00" routeLength="1180.66" waitingTime="0.00" waitingCount="0" stopTime="0.00" timeLoss="19.14" rerouteNo="0" devices="tripinfo_V77.0 battery_V77.0" vType="DEFAULT_VEHTYPE" speedFactor="0.98" vaporized=""/>
    <tripinfo id="V20.0" depart="3.00" departLane="-gneE79_0" departPos="5.10" departPosLat="0.00" departSpeed="0.00" departDelay="3.00" arrival="119.00" arrivalLane="-gneE64_0" arrivalPos="239.60" arrivalPosLat="0.00" arrivalSpeed="14.99" duration="116.00" routeLength="1484.87" waitingTime="0.00" waitingCount="0" stopTime="0.00" timeLoss="19.16" rerouteNo="0" devices="tripinfo_V20.0 battery_V20.0" vType="DEFAULT_VEHTYPE" speedFactor="1.12" vaporized=""/>
    <tripinfo id="V5.0" depart="0.00" departLane="gneE125_0" departPos="5.10" departPosLat="0.00" departSpeed="0.00" departDelay="0.00" arrival="119.00" arrivalLane="-gneE57_0" arrivalPos="234.83" arrivalPosLat="0.00" arrivalSpeed="14.02" duration="119.00" routeLength="1465.38" waitingTime="0.00" waitingCount="0" stopTime="0.00" timeLoss="19.34" rerouteNo="0" devices="tripinfo_V5.0 battery_V5.0" vType="DEFAULT_VEHTYPE" speedFactor="1.09" vaporized=""/>
    <tripinfo id="V87.0" depart="9.00" departLane="-gneE117_0" departPos="5.10" departPosLat="0.00" departSpeed="0.00" departDelay="9.00" arrival="121.00" arrivalLane="-gneE106_0" arrivalPos="198.76" arrivalPosLat="0.00" arrivalSpeed="13.69" duration="112.00" routeLength="1008.03" waitingTime="14.00" waitingCount="3" stopTime="0.00" timeLoss="37.10" rerouteNo="0" devices="tripinfo_V87.0 battery_V87.0" vType="DEFAULT_VEHTYPE" speedFactor="1.00" vaporized=""/>
    <tripinfo id="V62.0" depart="0.00" departLane="gneE65_0" departPos="5.10" departPosLat="0.00" departSpeed="0.00" departDelay="0.00" arrival="123.00" arrivalLane="-gneE106_0" arrivalPos="198.76" arrivalPosLat="0.00" arrivalSpeed="13.09" duration="123.00" routeLength="975.12" waitingTime="18.00" waitingCount="4" stopTime="0.00" timeLoss="49.60" rerouteNo="0" devices="tripinfo_V62.0 battery_V62.0" vType="DEFAULT_VEHTYPE" speedFactor="0.97" vaporized=""/>
    <tripinfo id="V15.0" depart="0.00" departLane="-gneE68_0" departPos="5.10" departPosLat="0.00" departSpeed="0.00" departDelay="0.00" arrival="124.00" arrivalLane="-gneE117_0" arrivalPos="25.10" arrivalPosLat="0.00" arrivalSpeed="12.16" duration="124.00" routeLength="1220.20" waitingTime="5.00" waitingCount="1" stopTime="0.00" timeLoss="22.67" rerouteNo="0" devices="tripinfo_V15.0 battery_V15.0" vType="DEFAULT_VEHTYPE" speedFactor="0.89" vaporized=""/>
    <tripinfo id="V33.0" depart="0.00" departLane="gneE69_0" departPos="5.10" departPosLat="0.00" departSpeed="0.00" departDelay="0.00" arrival="124.00" arrivalLane="-gneE48_0" arrivalPos="235.60" arrivalPosLat="0.00" arrivalSpeed="12.49" duration="124.00" routeLength="969.55" waitingTime="26.00" waitingCount="2" stopTime="0.00" timeLoss="48.17" rerouteNo="0" devices="tripinfo_V33.0 battery_V33.0" vType="DEFAULT_VEHTYPE" speedFactor="0.95" vaporized=""/>
    <tripinfo id="V21.0" depart="3.00" departLane="-gneE119_0" departPos="5.10" departPosLat="0.00" departSpeed="0.00" departDelay="3.00" arrival="125.00" arrivalLane="gneE57_0" arrivalPos="234.83" arrivalPosLat="0.00" arrivalSpeed="12.94" duration="122.00" routeLength="1213.61" waitingTime="9.00" waitingCount="2" stopTime="0.00" timeLoss="31.91" rerouteNo="0" devices="tripinfo_V21.0 battery_V21.0" vType="DEFAULT_VEHTYPE" speedFactor="0.99" vaporized=""/>
    <tripinfo id="V67.0" depart="3.00" departLane="gneE117_0" departPos="5.10" departPosLat="0.00" departSpeed="0.00" departDelay="3.00" arrival="126.00" arrivalLane="-gneE48_0" arrivalPos="235.60" arrivalPosLat="0.00" arrivalSpeed="12.29" duration="123.00" routeLength="1225.13" waitingTime="5.00" waitingCount="1" stopTime="0.00" timeLoss="26.56" rerouteNo="0" devices="tripinfo_V67.0 battery_V67.0" vType="DEFAULT_VEHTYPE" speedFactor="0.94" vaporized=""/>
    <tripinfo id="V75.0" depart="3.00" departLane="-gneE63_0" departPos="5.10" departPosLat="0.00" departSpeed="0.00" departDelay="3.00" arrival="126.00" arrivalLane="-gneE117_0" arrivalPos="25.10" arrivalPosLat="0.00" arrivalSpeed="14.00" duration="123.00" routeLength="1217.86" waitingTime="9.00" waitingCount="2" stopTime="0.00" timeLoss="37.45" rerouteNo="0" devices="tripinfo_V75.0 battery_V75.0" vType="DEFAULT_VEHTYPE" speedFactor="1.06" vaporized=""/>
    <tripinfo id="V18.0" depart="0.00" departLane="gneE78_0" departPos="5.10" departPosLat="0.00" departSpeed="0.00" departDelay="0.00" arrival="127.00" arrivalLane="gneE117_0" arrivalPos="25.10" arrivalPosLat="0.00" arrivalSpeed="13.88" duration="127.00" routeLength="1012.88" waitingTime="30.00" waitingCount="1" stopTime="0.00" timeLoss="58.14" rerouteNo="0" devices="tripinfo_V18.0 battery_V18.0" vType="DEFAULT_VEHTYPE" speedFactor="1.09" vaporized=""/>
    <tripinfo id="V8.0" depart="12.00" departLane="gneE127_0" departPos="5.10" departPosLat="0.00" departSpeed="0.00" departDelay="12.00" arrival="127.00" arrivalLane="gneE57_0" arrivalPos="234.83" arrivalPosLat="0.00" arrivalSpeed="13.55" duration="115.00" routeLength="978.05" waitingTime="8.00" waitingCount="3" stopTime="0.00" timeLoss="43.47" rerouteNo="0" devices="tripinfo_V8.0 battery_V8.0" vType="DEFAULT_VEHTYPE" speedFactor="1.01" vaporized=""/>
    <tripinfo id="V4.0" depart="6.00" departLane="-gneE79_0" departPos="5.10" departPosLat="0.00" departSpeed="0.00" departDelay="6.00" arrival="129.00" arrivalLane="gneE57_0" arrivalPos="234.83" arrivalPosLat="0.00" arrivalSpeed="13.44" duration="123.00" routeLength="1214.88" waitingTime="15.00" waitingCount="1" stopTime="0.00" timeLoss="33.09" rerouteNo="0" devices="tripinfo_V4.0 battery_V4.0" vType="DEFAULT_VEHTYPE" speedFactor="0.99" vaporized=""/>