<?xml version="1.0" encoding="UTF-8"?>

<!-- generated on 03/12/21 11:00:13 by Eclipse SUMO GUI Version 1.7.0
<configuration xmlns:xsi="http://www.w3.org/2001/XMLSchema-instance" xsi:noNamespaceSchemaLocation="http://sumo.dlr.de/xsd/sumoConfiguration.xsd">

    <input>
        <net-file value="data/EVGrid.net.xml"/>
        <route-files value="data/electricvehicles.rou.xml"/>
        <additional-files value="data/EVGrid_additionals.add.xml"/>
    </input>

    <output>
        <battery-output value="data/battery.out.xml"/>
        <battery-output.precision value="4"/>
        <chargingstations-output value="data/EVGrid_chargingstations.xml"/>
        <summary-output value="data/summary-overview.xml"/>
        <tripinfo-output value="tripinfo.xml"/>
    </output>

    <processing>
        <lateral-resolution value="1"/>
    </processing>

    <battery>
        <device.battery.probability value="1"/>
    </battery>

    <traci_server>
        <remote-port value="51799"/>
    </traci_server>

    <gui_only>
        <gui-settings-file value="data/gui-settings.cfg"/>
    </gui_only>

</configuration>
-->

<tripinfos xmlns:xsi="http://www.w3.org/2001/XMLSchema-instance" xsi:noNamespaceSchemaLocation="http://sumo.dlr.de/xsd/tripinfo_file.xsd">
    <tripinfo id="V43.0" depart="0.00" departLane="-gneE48_0" departPos="5.10" departPosLat="0.00" departSpeed="0.00" departDelay="0.00" arrival="19.00" arrivalLane="-gneE48_0" arrivalPos="235.60" arrivalPosLat="0.00" arrivalSpeed="15.25" duration="19.00" routeLength="230.50" waitingTime="0.00" waitingCount="0" stopTime="0.00" timeLoss="3.83" rerouteNo="0" devices="tripinfo_V43.0 battery_V43.0" vType="DEFAULT_VEHTYPE" speedFactor="1.10" vaporized=""/>
    <tripinfo id="V15.0" depart="0.00" departLane="gneE84_0" departPos="5.10" departPosLat="0.00" departSpeed="0.00" departDelay="0.00" arrival="21.00" arrivalLane="gneE83_0" arrivalPos="7.95" arrivalPosLat="0.00" arrivalSpeed="7.46" duration="21.00" routeLength="80.38" waitingTime="2.00" waitingCount="1" stopTime="0.00" timeLoss="11.10" rerouteNo="0" devices="tripinfo_V15.0 battery_V15.0" vType="DEFAULT_VEHTYPE" speedFactor="0.89" vaporized=""/>
    <tripinfo id="V64.0" depart="3.00" departLane="-gneE68_0" departPos="5.10" departPosLat="0.00" departSpeed="0.00" departDelay="3.00" arrival="30.00" arrivalLane="-gneE68_0" arrivalPos="235.60" arrivalPosLat="0.00" arrivalSpeed="4.42" duration="27.00" routeLength="230.50" waitingTime="0.00" waitingCount="0" stopTime="0.00" timeLoss="11.99" rerouteNo="0" devices="tripinfo_V64.0 battery_V64.0" vType="DEFAULT_VEHTYPE" speedFactor="1.12" vaporized=""/>
    <tripinfo id="V66.0" depart="3.00" departLane="gneE46_0" departPos="5.10" departPosLat="0.00" departSpeed="0.00" departDelay="3.00" arrival="34.00" arrivalLane="gneE85_0" arrivalPos="6.93" arrivalPosLat="0.00" arrivalSpeed="6.01" duration="31.00" routeLength="285.37" waitingTime="0.00" waitingCount="0" stopTime="0.00" timeLoss="9.68" rerouteNo="0" devices="tripinfo_V66.0 battery_V66.0" vType="DEFAULT_VEHTYPE" speedFactor="0.99" vaporized=""/>
    <tripinfo id="V86.0" depart="0.00" departLane="gneE67_0" departPos="5.10" departPosLat="0.00" departSpeed="0.00" departDelay="0.00" arrival="45.00" arrivalLane="gneE83_0" arrivalPos="7.95" arrivalPosLat="0.00" arrivalSpeed="7.67" duration="45.00" routeLength="498.77" waitingTime="0.00" waitingCount="0" stopTime="0.00" timeLoss="7.17" rerouteNo="0" devices="tripinfo_V86.0 battery_V86.0" vType="DEFAULT_VEHTYPE" speedFactor="0.98" vaporized=""/>
    <tripinfo id="V89.0" depart="3.00" departLane="gneE57_0" departPos="5.10" departPosLat="0.00" departSpeed="0.00" departDelay="3.00" arrival="45.00" arrivalLane="-gneE50_0" arrivalPos="235.60" arrivalPosLat="0.00" arrivalSpeed="13.06" duration="42.00" routeLength="475.13" waitingTime="0.00" waitingCount="0" stopTime="0.00" timeLoss="6.91" rerouteNo="0" devices="tripinfo_V89.0 battery_V89.0" vType="DEFAULT_VEHTYPE" speedFactor="1.01" vaporized=""/>
    <tripinfo id="V46.0" depart="0.00" departLane="-gneE78_0" departPos="5.10" departPosLat="0.00" departSpeed="0.00" departDelay="0.00" arrival="54.00" arrivalLane="gneE48_0" arrivalPos="235.60" arrivalPosLat="0.00" arrivalSpeed="7.52" duration="54.00" routeLength="520.50" waitingTime="0.00" waitingCount="0" stopTime="0.00" timeLoss="13.09" rerouteNo="0" devices="tripinfo_V46.0 battery_V46.0" vType="DEFAULT_VEHTYPE" speedFactor="0.96" vaporized=""/>
    <tripinfo id="V63.0" depart="9.00" departLane="-gneE50_0" departPos="5.10" departPosLat="0.00" departSpeed="0.00" departDelay="9.00" arrival="56.00" arrivalLane="-gneE49_0" arrivalPos="235.60" arrivalPosLat="0.00" arrivalSpeed="11.05" duration="47.00" routeLength="475.13" waitingTime="0.00" waitingCount="0" stopTime="0.00" timeLoss="14.21" rerouteNo="0" devices="tripinfo_V63.0 battery_V63.0" vType="DEFAULT_VEHTYPE" speedFactor="1.08" vaporized=""/>
    <tripinfo id="V59.0" depart="0.00" departLane="gneE66_0" departPos="5.10" departPosLat="0.00" departSpeed="0.00" departDelay="0.00" arrival="62.00" arrivalLane="-gneE47_0" arrivalPos="232.55" arrivalPosLat="0.00" arrivalSpeed="13.80" duration="62.00" routeLength="723.63" waitingTime="0.00" waitingCount="0" stopTime="0.00" timeLoss="8.50" rerouteNo="0" devices="tripinfo_V59.0 battery_V59.0" vType="DEFAULT_VEHTYPE" speedFactor="1.00" vaporized=""/>
    <tripinfo id="V99.0" depart="3.00" departLane="-gneE49_0" departPos="5.10" departPosLat="0.00" departSpeed="0.00" departDelay="3.00" arrival="62.00" arrivalLane="gneE57_0" arrivalPos="235.60" arrivalPosLat="0.00" arrivalSpeed="15.10" duration="59.00" routeLength="719.76" waitingTime="0.00" waitingCount="0" stopTime="0.00" timeLoss="10.01" rerouteNo="0" devices="tripinfo_V99.0 battery_V99.0" vType="DEFAULT_VEHTYPE" speedFactor="1.10" vaporized=""/>
    <tripinfo id="V4.0" depart="0.00" departLane="-gneE71_0" departPos="5.10" departPosLat="0.00" departSpeed="0.00" departDelay="0.00" arrival="63.00" arrivalLane="gneE60_0" arrivalPos="239.60" arrivalPosLat="0.00" arrivalSpeed="13.66" duration="63.00" routeLength="723.76" waitingTime="0.00" waitingCount="0" stopTime="0.00" timeLoss="8.55" rerouteNo="0" devices="tripinfo_V4.0 battery_V4.0" vType="DEFAULT_VEHTYPE" speedFactor="0.99" vaporized=""/>
    <tripinfo id="V23.0" depart="3.00" departLane="gneE69_0" departPos="5.10" departPosLat="0.00" departSpeed="0.00" departDelay="3.00" arrival="65.00" arrivalLane="-gneE64_0" arrivalPos="239.60" arrivalPosLat="0.00" arrivalSpeed="12.15" duration="62.00" routeLength="484.29" waitingTime="12.00" waitingCount="1" stopTime="0.00" timeLoss="21.22" rerouteNo="0" devices="tripinfo_V23.0 battery_V23.0" vType="DEFAULT_VEHTYPE" speedFactor="0.88" vaporized=""/>
    <tripinfo id="V91.0" depart="12.00" departLane="gneE83_0" departPos="5.10" departPosLat="0.00" departSpeed="0.00" departDelay="12.00" arrival="69.00" arrivalLane="gneE57_0" arrivalPos="235.60" arrivalPosLat="0.00" arrivalSpeed="12.09" duration="57.00" routeLength="486.34" waitingTime="5.00" waitingCount="1" stopTime="0.00" timeLoss="16.93" rerouteNo="0" devices="tripinfo_V91.0 battery_V91.0" vType="DEFAULT_VEHTYPE" speedFactor="0.89" vaporized=""/>
    <tripinfo id="V27.0" depart="6.00" departLane="-gneE50_0" departPos="5.10" departPosLat="0.00" departSpeed="0.00" departDelay="6.00" arrival="76.00" arrivalLane="gneE65_0" arrivalPos="235.60" arrivalPosLat="0.00" arrivalSpeed="13.25" duration="70.00" routeLength="725.13" waitingTime="0.00" waitingCount="0" stopTime="0.00" timeLoss="17.36" rerouteNo="0" devices="tripinfo_V27.0 battery_V27.0" vType="DEFAULT_VEHTYPE" speedFactor="1.02" vaporized=""/>
    <tripinfo id="V11.0" depart="0.00" departLane="-gneE69_0" departPos="5.10" departPosLat="0.00" departSpeed="0.00" departDelay="0.00" arrival="80.00" arrivalLane="gneE68_0" arrivalPos="235.60" arrivalPosLat="0.00" arrivalSpeed="10.07" duration="80.00" routeLength="730.08" waitingTime="15.00" waitingCount="1" stopTime="0.00" timeLoss="29.52" rerouteNo="0" devices="tripinfo_V11.0 battery_V11.0" vType="DEFAULT_VEHTYPE" speedFactor="1.08" vaporized=""/>
    <tripinfo id="V47.0" depart="3.00" departLane="-gneE51_0" departPos="5.10" departPosLat="0.00" departSpeed="0.00" departDelay="3.00" arrival="81.00" arrivalLane="gneE70_0" arrivalPos="235.60" arrivalPosLat="0.00" arrivalSpeed="9.53" duration="78.00" routeLength="730.29" waitingTime="10.00" waitingCount="2" stopTime="0.00" timeLoss="28.94" rerouteNo="0" devices="tripinfo_V47.0 battery_V47.0" vType="DEFAULT_VEHTYPE" speedFactor="1.09" vaporized=""/>
    <tripinfo id="V0.0" depart="0.00" departLane="-gneE51_0" departPos="5.10" departPosLat="0.00" departSpeed="0.00" departDelay="0.00" arrival="82.00" arrivalLane="gneE53_0" arrivalPos="239.60" arrivalPosLat="0.00" arrivalSpeed="13.62" duration="82.00" routeLength="973.55" waitingTime="0.00" waitingCount="0" stopTime="0.00" timeLoss="13.91" rerouteNo="0" devices="tripinfo_V0.0 battery_V0.0" vType="DEFAULT_VEHTYPE" speedFactor="1.06" vaporized=""/>
    <tripinfo id="V52.0" depart="3.00" departLane="gneE54_0" departPos="5.10" departPosLat="0.00" departSpeed="0.00" departDelay="3.00" arrival="83.00" arrivalLane="gneE47_0" arrivalPos="232.55" arrivalPosLat="0.00" arrivalSpeed="11.33" duration="80.00" routeLength="724.12" waitingTime="6.00" waitingCount="1" stopTime="0.00" timeLoss="18.75" rerouteNo="0" devices="tripinfo_V52.0 battery_V52.0" vType="DEFAULT_VEHTYPE" speedFactor="0.88" vaporized=""/>
    <tripinfo id="V9.0" depart="0.00" departLane="-gneE49_0" departPos="5.10" departPosLat="0.00" departSpeed="0.00" departDelay="0.00" arrival="83.00" arrivalLane="-gneE64_0" arrivalPos="239.60" arrivalPosLat="0.00" arrivalSpeed="13.11" duration="83.00" routeLength="984.08" waitingTime="0.00" waitingCount="0" stopTime="0.00" timeLoss="12.28" rerouteNo="0" devices="tripinfo_V9.0 battery_V9.0" vType="DEFAULT_VEHTYPE" speedFactor="1.02" vaporized=""/>
    <tripinfo id="V20.0" depart="0.00" departLane="gneE59_0" departPos="5.10" departPosLat="0.00" departSpeed="0.00" departDelay="0.00" arrival="85.00" arrivalLane="-gneE64_0" arrivalPos="239.60" arrivalPosLat="0.00" arrivalSpeed="15.36" duration="85.00" routeLength="984.29" waitingTime="2.00" waitingCount="1" stopTime="0.00" timeLoss="20.65" rerouteNo="0" devices="tripinfo_V20.0 battery_V20.0" vType="DEFAULT_VEHTYPE" speedFactor="1.12" vaporized=""/>
    <tripinfo id="V72.0" depart="6.00" departLane="-gneE70_0" departPos="5.10" departPosLat="0.00" departSpeed="0.00" departDelay="6.00" arrival="86.00" arrivalLane="-gneE65_0" arrivalPos="235.60" arrivalPosLat="0.00" arrivalSpeed="12.96" duration="80.00" routeLength="980.08" waitingTime="0.00" waitingCount="0" stopTime="0.00" timeLoss="8.95" rerouteNo="0" devices="tripinfo_V72.0 battery_V72.0" vType="DEFAULT_VEHTYPE" speedFactor="1.02" vaporized=""/>
    <tripinfo id="V83.0" depart="7.00" departLane="gneE64_0" departPos="5.10" departPosLat="0.00" departSpeed="0.00" departDelay="7.00" arrival="86.00" arrivalLane="gneE70_0" arrivalPos="235.60" arrivalPosLat="0.00" arrivalSpeed="12.00" duration="79.00" routeLength="723.76" waitingTime="11.00" waitingCount="1" stopTime="0.00" timeLoss="25.73" rerouteNo="0" devices="tripinfo_V83.0 battery_V83.0" vType="DEFAULT_VEHTYPE" speedFactor="1.02" vaporized=""/>
    <tripinfo id="V55.0" depart="0.00" departLane="gneE83_0" departPos="5.10" departPosLat="0.00" departSpeed="0.00" departDelay="0.00" arrival="88.00" arrivalLane="-gneE59_0" arrivalPos="235.60" arrivalPosLat="0.00" arrivalSpeed="15.63" duration="88.00" routeLength="814.54" waitingTime="7.00" waitingCount="3" stopTime="0.00" timeLoss="33.65" rerouteNo="0" devices="tripinfo_V55.0 battery_V55.0" vType="DEFAULT_VEHTYPE" speedFactor="1.17" vaporized=""/>
    <tripinfo id="V87.0" depart="3.00" departLane="-gneE71_0" departPos="5.10" departPosLat="0.00" departSpeed="0.00" departDelay="3.00" arrival="88.00" arrivalLane="gneE54_0" arrivalPos="235.60" arrivalPosLat="0.00" arrivalSpeed="13.84" duration="85.00" routeLength="974.71" waitingTime="0.00" waitingCount="0" stopTime="0.00" timeLoss="12.03" rerouteNo="0" devices="tripinfo_V87.0 battery_V87.0" vType="DEFAULT_VEHTYPE" speedFactor="1.00" vaporized=""/>
    <tripinfo id="V5.0" depart="3.00" departLane="-gneE70_0" departPos="5.10" departPosLat="0.00" departSpeed="0.00" departDelay="3.00" arrival="89.00" arrivalLane="-gneE61_0" arrivalPos="239.60" arrivalPosLat="0.00" arrivalSpeed="15.04" duration="86.00" routeLength="973.55" waitingTime="3.00" waitingCount="1" stopTime="0.00" timeLoss="19.17" rerouteNo="0" devices="tripinfo_V5.0 battery_V5.0" vType="DEFAULT_VEHTYPE" speedFactor="1.09" vaporized=""/>
    <tripinfo id="V2.0" depart="0.00" departLane="gneE57_0" departPos="5.10" departPosLat="0.00" departSpeed="0.00" departDelay="0.00" arrival="90.00" arrivalLane="gneE61_0" arrivalPos="239.60" arrivalPosLat="0.00" arrivalSpeed="14.48" duration="90.00" routeLength="971.10" waitingTime="3.00" waitingCount="1" stopTime="0.00" timeLoss="21.26" rerouteNo="0" devices="tripinfo_V2.0 battery_V2.0" vType="DEFAULT_VEHTYPE" speedFactor="1.05" vaporized=""/>
    <tripinfo id="V44.0" depart="2.00" departLane="gneE65_0" departPos="5.10" departPosLat="0.00" departSpeed="0.00" departDelay="2.00" arrival="93.00" arrivalLane="gneE48_0" arrivalPos="235.60" arrivalPosLat="0.00" arrivalSpeed="11.69" duration="91.00" routeLength="971.31" waitingTime="0.00" waitingCount="0" stopTime="0.00" timeLoss="11.65" rerouteNo="0" devices="tripinfo_V44.0 battery_V44.0" vType="DEFAULT_VEHTYPE" speedFactor="0.90" vaporized=""/>
    <tripinfo id="V40.0" depart="3.00" departLane="gneE53_0" departPos="5.10" departPosLat="0.00" departSpeed="0.00" departDelay="3.00" arrival="95.00" arrivalLane="-gneE67_0" arrivalPos="239.60" arrivalPosLat="0.00" arrivalSpeed="7.92" duration="92.00" routeLength="985.83" waitingTime="0.00" waitingCount="0" stopTime="0.00" timeLoss="21.52" rerouteNo="0" devices="tripinfo_V40.0 battery_V40.0" vType="DEFAULT_VEHTYPE" speedFactor="1.02" vaporized=""/>
    <tripinfo id="V24.0" depart="0.00" departLane="gneE79_0" departPos="5.10" departPosLat="0.00" departSpeed="0.00" departDelay="0.00" arrival="96.00" arrivalLane="gneE85_0" arrivalPos="6.93" arrivalPosLat="0.00" arrivalSpeed="7.49" duration="96.00" routeLength="969.08" waitingTime="0.00" waitingCount="0" stopTime="0.00" timeLoss="18.47" rerouteNo="0" devices="tripinfo_V24.0 battery_V24.0" vType="DEFAULT_VEHTYPE" speedFactor="0.94" vaporized=""/>
    <tripinfo id="V34.0" depart="0.00" departLane="-gneE61_0" departPos="5.10" departPosLat="0.00" departSpeed="0.00" departDelay="0.00" arrival="96.00" arrivalLane="gneE83_0" arrivalPos="7.95" arrivalPosLat="0.00" arrivalSpeed="10.44" duration="96.00" routeLength="1258.81" waitingTime="0.00" waitingCount="0" stopTime="0.00" timeLoss="14.48" rerouteNo="0" devices="tripinfo_V34.0 battery_V34.0" vType="DEFAULT_VEHTYPE" speedFactor="1.13" vaporized=""/>
    <tripinfo id="V1.0" depart="0.00" departLane="-gneE50_0" departPos="5.10" departPosLat="0.00" departSpeed="0.00" departDelay="0.00" arrival="97.00" arrivalLane="-gneE63_0" arrivalPos="239.60" arrivalPosLat="0.00" arrivalSpeed="12.63" duration="97.00" routeLength="981.63" waitingTime="2.00" waitingCount="1" stopTime="0.00" timeLoss="20.40" rerouteNo="0" devices="tripinfo_V1.0 battery_V1.0" vType="DEFAULT_VEHTYPE" speedFactor="0.94" vaporized=""/>
    <tripinfo id="V76.0" depart="17.00" departLane="gneE84_0" departPos="5.10" departPosLat="0.00" departSpeed="0.00" departDelay="17.00" arrival="98.00" arrivalLane="gneE51_0" arrivalPos="235.60" arrivalPosLat="0.00" arrivalSpeed="13.26" duration="81.00" routeLength="727.12" waitingTime="6.00" waitingCount="2" stopTime="0.00" timeLoss="24.05" rerouteNo="0" devices="tripinfo_V76.0 battery_V76.0" vType="DEFAULT_VEHTYPE" speedFactor="0.96" vaporized=""/>
    <tripinfo id="V90.0" depart="0.00" departLane="-gneE47_0" departPos="5.10" departPosLat="0.00" departSpeed="0.00" departDelay="0.00" arrival="100.00" arrivalLane="-gneE51_0" arrivalPos="235.60" arrivalPosLat="0.00" arrivalSpeed="13.14" duration="100.00" routeLength="1221.30" waitingTime="0.00" waitingCount="0" stopTime="0.00" timeLoss="12.50" rerouteNo="0" devices="tripinfo_V90.0 battery_V90.0" vType="DEFAULT_VEHTYPE" speedFactor="1.02" vaporized=""/>
    <tripinfo id="V19.0" depart="0.00" departLane="gneE64_0" departPos="5.10" departPosLat="0.00" departSpeed="0.00" departDelay="0.00" arrival="101.00" arrivalLane="gneE68_0" arrivalPos="235.60" arrivalPosLat="0.00" arrivalSpeed="13.35" duration="101.00" routeLength="978.71" waitingTime="14.00" waitingCount="1" stopTime="0.00" timeLoss="30.12" rerouteNo="0" devices="tripinfo_V19.0 battery_V19.0" vType="DEFAULT_VEHTYPE" speedFactor="1.03" vaporized=""/>
    <tripinfo id="V21.0" depart="0.00" departLane="gneE65_0" departPos="5.10" departPosLat="0.00" departSpeed="0.00" departDelay="0.00" arrival="101.00" arrivalLane="-gneE46_0" arrivalPos="239.59" arrivalPosLat="0.00" arrivalSpeed="13.42" duration="101.00" routeLength="1230.67" waitingTime="0.00" waitingCount="0" stopTime="0.00" timeLoss="10.43" rerouteNo="0" devices="tripinfo_V21.0 battery_V21.0" vType="DEFAULT_VEHTYPE" speedFactor="0.99" vaporized=""/>
    <tripinfo id="V70.0" depart="6.00" departLane="gneE59_0" departPos="5.10" departPosLat="0.00" departSpeed="0.00" departDelay="6.00" arrival="102.00" arrivalLane="gneE51_0" arrivalPos="235.60" arrivalPosLat="0.00" arrivalSpeed="8.18" duration="96.00" routeLength="980.08" waitingTime="5.00" waitingCount="1" stopTime="0.00" timeLoss="26.69" rerouteNo="0" devices="tripinfo_V70.0 battery_V70.0" vType="DEFAULT_VEHTYPE" speedFactor="1.04" vaporized=""/>
    <tripinfo id="V8.0" depart="9.00" departLane="gneE59_0" departPos="5.10" departPosLat="0.00" departSpeed="0.00" departDelay="9.00" arrival="104.00" arrivalLane="gneE51_0" arrivalPos="235.60" arrivalPosLat="0.00" arrivalSpeed="12.21" duration="95.00" routeLength="980.08" waitingTime="4.00" waitingCount="1" stopTime="0.00" timeLoss="23.24" rerouteNo="0" devices="tripinfo_V8.0 battery_V8.0" vType="DEFAULT_VEHTYPE" speedFactor="1.01" vaporized=""/>
    <tripinfo id="V36.0" depart="0.00" departLane="-gneE52_0" departPos="5.10" departPosLat="0.00" departSpeed="0.00" departDelay="0.00" arrival="105.00" arrivalLane="-gneE64_0" arrivalPos="239.60" arrivalPosLat="0.00" arrivalSpeed="10.95" duration="105.00" routeLength="1228.92" waitingTime="2.00" waitingCount="1" stopTime="0.00" timeLoss="29.07" rerouteNo="0" devices="tripinfo_V36.0 battery_V36.0" vType="DEFAULT_VEHTYPE" speedFactor="1.18" vaporized=""/>
    <tripinfo id="V96.0" depart="15.00" departLane="gneE71_0" departPos="5.10" departPosLat="0.00" departSpeed="0.00" departDelay="15.00" arrival="105.00" arrivalLane="gneE50_0" arrivalPos="235.60" arrivalPosLat="0.00" arrivalSpeed="12.87" duration="90.00" routeLength="964.39" waitingTime="0.00" waitingCount="0" stopTime="0.00" timeLoss="18.54" rerouteNo="0" devices="tripinfo_V96.0 battery_V96.0" vType="DEFAULT_VEHTYPE" speedFactor="1.01" vaporized=""/>
    <tripinfo id="V45.0" depart="3.00" departLane="gneE71_0" departPos="5.10" departPosLat="0.00" departSpeed="0.00" departDelay="3.00" arrival="108.00" arrivalLane="gneE68_0" arrivalPos="235.60" arrivalPosLat="0.00" arrivalSpeed="13.48" duration="105.00" routeLength="1219.55" waitingTime="1.00" waitingCount="1" stopTime="0.00" timeLoss="16.76" rerouteNo="0" devices="tripinfo_V45.0 battery_V45.0" vType="DEFAULT_VEHTYPE" speedFactor="1.03" vaporized=""/>
    <tripinfo id="V28.0" depart="3.00" departLane="gneE68_0" departPos="5.10" departPosLat="0.00" departSpeed="0.00" departDelay="3.00" arrival="109.00" arrivalLane="-gneE62_0" arrivalPos="235.60" arrivalPosLat="0.00" arrivalSpeed="13.95" duration="106.00" routeLength="1231.63" waitingTime="0.00" waitingCount="0" stopTime="0.00" timeLoss="16.58" rerouteNo="0" devices="tripinfo_V28.0 battery_V28.0" vType="DEFAULT_VEHTYPE" speedFactor="1.01" vaporized=""/>
    <tripinfo id="V29.0" depart="0.00" departLane="-gneE46_0" departPos="5.10" departPosLat="0.00" departSpeed="0.00" departDelay="0.00" arrival="109.00" arrivalLane="gneE85_0" arrivalPos="6.93" arrivalPosLat="0.00" arrivalSpeed="6.05" duration="109.00" routeLength="1014.59" waitingTime="10.00" waitingCount="1" stopTime="0.00" timeLoss="32.11" rerouteNo="0" devices="tripinfo_V29.0 battery_V29.0" vType="DEFAULT_VEHTYPE" speedFactor="0.98" vaporized=""/>
    <tripinfo id="V38.0" depart="0.00" departLane="-gneE62_0" departPos="5.10" departPosLat="0.00" departSpeed="0.00" departDelay="0.00" arrival="110.00" arrivalLane="gneE61_0" arrivalPos="239.60" arrivalPosLat="0.00" arrivalSpeed="13.34" duration="110.00" routeLength="1215.73" waitingTime="0.00" waitingCount="0" stopTime="0.00" timeLoss="20.48" rerouteNo="0" devices="tripinfo_V38.0 battery_V38.0" vType="DEFAULT_VEHTYPE" speedFactor="1.01" vaporized=""/>
    <tripinfo id="V62.0" depart="3.00" departLane="-gneE53_0" departPos="5.10" departPosLat="0.00" departSpeed="0.00" departDelay="3.00" arrival="110.00" arrivalLane="-gneE54_0" arrivalPos="235.60" arrivalPosLat="0.00" arrivalSpeed="13.11" duration="107.00" routeLength="1218.39" waitingTime="0.00" waitingCount="0" stopTime="0.00" timeLoss="13.74" rerouteNo="0" devices="tripinfo_V62.0 battery_V62.0" vType="DEFAULT_VEHTYPE" speedFactor="0.97" vaporized=""/>
    <tripinfo id="V37.0" depart="0.00" departLane="gneE50_0" departPos="5.10" departPosLat="0.00" departSpeed="0.00" departDelay="0.00" arrival="111.00" arrivalLane="-gneE65_0" arrivalPos="235.60" arrivalPosLat="0.00" arrivalSpeed="14.85" duration="111.00" routeLength="1229.87" waitingTime="11.00" waitingCount="1" stopTime="0.00" timeLoss="31.80" rerouteNo="0" devices="tripinfo_V37.0 battery_V37.0" vType="DEFAULT_VEHTYPE" speedFactor="1.15" vaporized=""/>
    <tripinfo id="V94.0" depart="0.00" departLane="gneE63_0" departPos="5.10" departPosLat="0.00" departSpeed="0.00" departDelay="0.00" arrival="111.00" arrivalLane="-gneE48_0" arrivalPos="235.60" arrivalPosLat="0.00" arrivalSpeed="14.08" duration="111.00" routeLength="1221.10" waitingTime="7.00" waitingCount="2" stopTime="0.00" timeLoss="29.03" rerouteNo="0" devices="tripinfo_V94.0 battery_V94.0" vType="DEFAULT_VEHTYPE" speedFactor="1.09" vaporized=""/>
    <tripinfo id="V48.0" depart="0.00" departLane="-gneE65_0" departPos="5.10" departPosLat="0.00" departSpeed="0.00" departDelay="0.00" arrival="112.00" arrivalLane="gneE51_0" arrivalPos="235.60" arrivalPosLat="0.00" arrivalSpeed="14.22" duration="112.00" routeLength="980.29" waitingTime="17.00" waitingCount="2" stopTime="0.00" timeLoss="42.59" rerouteNo="0" devices="tripinfo_V48.0 battery_V48.0" vType="DEFAULT_VEHTYPE" speedFactor="1.04" vaporized=""/>
    <tripinfo id="V97.0" depart="6.00" departLane="gneE70_0" departPos="5.10" departPosLat="0.00" departSpeed="0.00" departDelay="6.00" arrival="114.00" arrivalLane="-gneE79_0" arrivalPos="200.78" arrivalPosLat="0.00" arrivalSpeed="12.06" duration="108.00" routeLength="1195.26" waitingTime="0.00" waitingCount="0" stopTime="0.00" timeLoss="11.14" rerouteNo="0" devices="tripinfo_V97.0 battery_V97.0" vType="DEFAULT_VEHTYPE" speedFactor="0.91" vaporized=""/>
    <tripinfo id="V35.0" depart="0.00" departLane="-gneE68_0" departPos="5.10" departPosLat="0.00" departSpeed="0.00" departDelay="0.00" arrival="116.00" arrivalLane="-gneE53_0" arrivalPos="239.60" arrivalPosLat="0.00" arrivalSpeed="12.40" duration="116.00" routeLength="1221.09" waitingTime="0.00" waitingCount="0" stopTime="0.00" timeLoss="19.85" rerouteNo="0" devices="tripinfo_V35.0 battery_V35.0" vType="DEFAULT_VEHTYPE" speedFactor="0.93" vaporized=""/>
    <tripinfo id="V51.0" depart="6.00" departLane="gneE69_0" departPos="5.10" departPosLat="0.00" departSpeed="0.00" departDelay="6.00" arrival="117.00" arrivalLane="gneE49_0" arrivalPos="235.60" arrivalPosLat="0.00" arrivalSpeed="12.14" duration="111.00" routeLength="964.39" waitingTime="10.00" waitingCount="1" stopTime="0.00" timeLoss="30.71" rerouteNo="0" devices="tripinfo_V51.0 battery_V51.0" vType="DEFAULT_VEHTYPE" speedFactor="0.90" vaporized=""/>
    <tripinfo id="V98.0" depart="8.00" departLane="gneE47_0" departPos="5.10" departPosLat="0.00" departSpeed="0.00" departDelay="8.00" arrival="117.00" arrivalLane="gneE85_0" arrivalPos="6.93" arrivalPosLat="0.00" arrivalSpeed="6.55" duration="109.00" routeLength="1025.48" waitingTime="6.00" waitingCount="1" stopTime="0.00" timeLoss="39.90" rerouteNo="0" devices="tripinfo_V98.0 battery_V98.0" vType="DEFAULT_VEHTYPE" speedFactor="1.12" vaporized=""/>
    <tripinfo id="V85.0" depart="6.00" departLane="-gneE53_0" departPos="5.10" departPosLat="0.00" departSpeed="0.00" departDelay="6.00" arrival="118.00" arrivalLane="gneE50_0" arrivalPos="235.60" arrivalPosLat="0.00" arrivalSpeed="4.56" duration="112.00" routeLength="1228.71" waitingTime="9.00" waitingCount="2" stopTime="0.00" timeLoss="33.09" rerouteNo="0" devices="tripinfo_V85.0 battery_V85.0" vType="DEFAULT_VEHTYPE" speedFactor="1.15" vaporized=""/>
    <tripinfo id="V12.0" depart="0.00" departLane="-gneE70_0" departPos="5.10" departPosLat="0.00" departSpeed="0.00" departDelay="0.00" arrival="119.00" arrivalLane="gneE46_0" arrivalPos="239.59" arrivalPosLat="0.00" arrivalSpeed="14.05" duration="119.00" routeLength="1476.25" waitingTime="0.00" waitingCount="0" stopTime="0.00" timeLoss="13.30" rerouteNo="0" devices="tripinfo_V12.0 battery_V12.0" vType="DEFAULT_VEHTYPE" speedFactor="1.03" vaporized=""/>
    <tripinfo id="V61.0" depart="3.00" departLane="gneE70_0" departPos="5.10" departPosLat="0.00" departSpeed="0.00" departDelay="3.00" arrival="120.00" arrivalLane="gneE50_0" arrivalPos="235.60" arrivalPosLat="0.00" arrivalSpeed="8.03" duration="117.00" routeLength="1215.94" waitingTime="6.00" waitingCount="1" stopTime="0.00" timeLoss="30.42" rerouteNo="0" devices="tripinfo_V61.0 battery_V61.0" vType="DEFAULT_VEHTYPE" speedFactor="1.02" vaporized=""/>
    <tripinfo id="V82.0" depart="4.00" departLane="gneE83_0" departPos="5.10" departPosLat="0.00" departSpeed="0.00" departDelay="4.00" arrival="120.00" arrivalLane="gneE63_0" arrivalPos="239.60" arrivalPosLat="0.00" arrivalSpeed="13.23" duration="116.00" routeLength="1234.97" waitingTime="0.00" waitingCount="0" stopTime="0.00" timeLoss="25.20" rerouteNo="0" devices="tripinfo_V82.0 battery_V82.0" vType="DEFAULT_VEHTYPE" speedFactor="1.00" vaporized=""/>
    <tripinfo id="V39.0" depart="0.00" departLane="gneE61_0" departPos="5.10" departPosLat="0.00" departSpeed="0.00" departDelay="0.00" arrival="121.00" arrivalLane="-gneE53_0" arrivalPos="239.60" arrivalPosLat="0.00" arrivalSpeed="15.90" duration="121.00" routeLength="1469.71" waitingTime="1.00" waitingCount="1" stopTime="0.00" timeLoss="29.24" rerouteNo="0" devices="tripinfo_V39.0 battery_V39.0" vType="DEFAULT_VEHTYPE" speedFactor="1.17" vaporized=""/>
    <tripinfo id="V26.0" depart="0.00" departLane="-gneE59_0" departPos="5.10" departPosLat="0.00" departSpeed="0.00" departDelay="0.00" arrival="122.00" arrivalLane="-gneE63_0" arrivalPos="239.60" arrivalPosLat="0.00" arrivalSpeed="14.95" duration="122.00" routeLength="1470.89" waitingTime="2.00" waitingCount="1" stopTime="0.00" timeLoss="27.58" rerouteNo="0" devices="tripinfo_V26.0 battery_V26.0" vType="DEFAULT_VEHTYPE" speedFactor="1.16" vaporized=""/>
    <tripinfo id="V75.0" depart="0.00" departLane="-gneE67_0" departPos="5.10" departPosLat="0.00" departSpeed="0.00" departDelay="0.00" arrival="122.00" arrivalLane="gneE65_0" arrivalPos="235.60" arrivalPosLat="0.00" arrivalSpeed="13.70" duration="122.00" routeLength="1465.52" waitingTime="0.00" waitingCount="0" stopTime="0.00" timeLoss="18.33" rerouteNo="0" devices="tripinfo_V75.0 battery_V75.0" vType="DEFAULT_VEHTYPE" speedFactor="1.06" vaporized=""/>
    <tripinfo id="V93.0" depart="12.00" departLane="gneE59_0" departPos="5.10" departPosLat="0.00" departSpeed="0.00" departDelay="12.00" arrival="122.00" arrivalLane="-gneE61_0" arrivalPos="239.60" arrivalPosLat="0.00" arrivalSpeed="11.97" duration="110.00" routeLength="1234.08" waitingTime="0.00" waitingCount="0" stopTime="0.00" timeLoss="11.54" rerouteNo="0" devices="tripinfo_V93.0 battery_V93.0" vType="DEFAULT_VEHTYPE" speedFactor="0.92" vaporized=""/>
    <tripinfo id="V50.0" depart="3.00" departLane="gneE61_0" departPos="5.10" departPosLat="0.00" departSpeed="0.00" departDelay="3.00" arrival="123.00" arrivalLane="-gneE68_0" arrivalPos="235.60" arrivalPosLat="0.00" arrivalSpeed="13.32" duration="120.00" routeLength="1475.31" waitingTime="0.00" waitingCount="0" stopTime="0.00" timeLoss="12.22" rerouteNo="0" devices="tripinfo_V50.0 battery_V50.0" vType="DEFAULT_VEHTYPE" speedFactor="1.00" vaporized=""/>
    <tripinfo id="V3.0" depart="3.00" departLane="-gneE79_0" departPos="5.10" departPosLat="0.00" departSpeed="0.00" departDelay="3.00" arrival="124.00" arrivalLane="gneE69_0" arrivalPos="235.60" arrivalPosLat="0.00" arrivalSpeed="12.25" duration="121.00" routeLength="1223.91" waitingTime="1.00" waitingCount="1" stopTime="0.00" timeLoss="19.55" rerouteNo="0" devices="tripinfo_V3.0 battery_V3.0" vType="DEFAULT_VEHTYPE" speedFactor="0.89" vaporized=""/>
    <tripinfo id="V54.0" depart="0.00" departLane="gneE85_0" departPos="5.10" departPosLat="0.00" departSpeed="0.00" departDelay="0.00" arrival="124.00" arrivalLane="gneE70_0" arrivalPos="235.60" arrivalPosLat="0.00" arrivalSpeed="11.09" duration="124.00" routeLength="954.50" waitingTime="19.00" waitingCount="3" stopTime="0.00" timeLoss="41.43" rerouteNo="0" devices="tripinfo_V54.0 battery_V54.0" vType="DEFAULT_VEHTYPE" speedFactor="0.85" vaporized=""/>